********************************************************************************
*                       GENERAL UTILITY LATTICE PROGRAM                        *
*                                 Julian Gale                                  *
*                      Nanochemistry Research Institute                        *
*                           Department of Chemistry                            *
*                    Curtin University, Western Australia                      *
********************************************************************************
* Version = 4.0.1 * Last modified =  10th January 2012                         *
********************************************************************************
*  single       - perform a single point run                                   *
*  phonon       - calculate phonons for final geometry                         *
*  eigenvectors - output phonon eigenvectors                                   *
********************************************************************************

  Job Started  at 18:27.45 22nd July       2012                               

  Number of CPUs =     1

  Host name      = gilgamesh.cheme.cmu.edu                 


  Total number of configurations input =   1

********************************************************************************
*  Input for Configuration =   1                                               *
********************************************************************************

  Formula = Ar48                                                        

  Number of irreducible atoms/shells =      48


  Total number atoms/shells =      48

  Dimensionality = 3               :  Bulk   



  Cartesian lattice vectors (Angstroms) :

       63.779600    0.000000    0.000000
        0.000000    5.315000    0.000000
        0.000000    0.000000    5.315000

  Cell parameters (Angstroms/Degrees):

  a =      63.7796    alpha =  90.0000
  b =       5.3150    beta  =  90.0000
  c =       5.3150    gamma =  90.0000

  Initial cell volume =        1801.724271 Angs**3

  Temperature of configuration =  0.000     K 

  Pressure of configuration =         0.000 GPa 

  Fractional coordinates of asymmetric unit :

--------------------------------------------------------------------------------
   No.  Atomic       x           y          z         Charge      Occupancy
        Label      (Frac)      (Frac)     (Frac)        (e)         (Frac)  
--------------------------------------------------------------------------------
      1 Ar1   c    0.000000    0.000000    0.000000     0.00000    1.000000    
      2 Ar1   c    0.041667    0.499997    0.000000     0.00000    1.000000    
      3 Ar1   c    0.041667    0.000000    0.499997     0.00000    1.000000    
      4 Ar1   c    0.000000    0.499997    0.499997     0.00000    1.000000    
      5 Ar1   c    0.083333    0.000000    0.000000     0.00000    1.000000    
      6 Ar1   c    0.125000    0.499997    0.000000     0.00000    1.000000    
      7 Ar1   c    0.125000    0.000000    0.499997     0.00000    1.000000    
      8 Ar1   c    0.083333    0.499997    0.499997     0.00000    1.000000    
      9 Ar1   c    0.166667    0.000000    0.000000     0.00000    1.000000    
     10 Ar1   c    0.208333    0.499997    0.000000     0.00000    1.000000    
     11 Ar1   c    0.208333    0.000000    0.499997     0.00000    1.000000    
     12 Ar1   c    0.166667    0.499997    0.499997     0.00000    1.000000    
     13 Ar1   c    0.250000    0.000000    0.000000     0.00000    1.000000    
     14 Ar1   c    0.291667    0.499997    0.000000     0.00000    1.000000    
     15 Ar1   c    0.291667    0.000000    0.499997     0.00000    1.000000    
     16 Ar1   c    0.250000    0.499997    0.499997     0.00000    1.000000    
     17 Ar1   c    0.333333    0.000000    0.000000     0.00000    1.000000    
     18 Ar1   c    0.375000    0.499997    0.000000     0.00000    1.000000    
     19 Ar1   c    0.375000    0.000000    0.499997     0.00000    1.000000    
     20 Ar1   c    0.333333    0.499997    0.499997     0.00000    1.000000    
     21 Ar1   c    0.416667    0.000000    0.000000     0.00000    1.000000    
     22 Ar1   c    0.458333    0.499997    0.000000     0.00000    1.000000    
     23 Ar1   c    0.458333    0.000000    0.499997     0.00000    1.000000    
     24 Ar1   c    0.416667    0.499997    0.499997     0.00000    1.000000    
     25 Ar2   c    0.500000    0.000000    0.000000     0.00000    1.000000    
     26 Ar2   c    0.541667    0.499997    0.000000     0.00000    1.000000    
     27 Ar2   c    0.541667    0.000000    0.499997     0.00000    1.000000    
     28 Ar2   c    0.500000    0.499997    0.499997     0.00000    1.000000    
     29 Ar2   c    0.583333    0.000000    0.000000     0.00000    1.000000    
     30 Ar2   c    0.625000    0.499997    0.000000     0.00000    1.000000    
     31 Ar2   c    0.625000    0.000000    0.499997     0.00000    1.000000    
     32 Ar2   c    0.583333    0.499997    0.499997     0.00000    1.000000    
     33 Ar2   c    0.666666    0.000000    0.000000     0.00000    1.000000    
     34 Ar2   c    0.708333    0.499997    0.000000     0.00000    1.000000    
     35 Ar2   c    0.708333    0.000000    0.499997     0.00000    1.000000    
     36 Ar2   c    0.666666    0.499997    0.499997     0.00000    1.000000    
     37 Ar2   c    0.750000    0.000000    0.000000     0.00000    1.000000    
     38 Ar2   c    0.791666    0.499997    0.000000     0.00000    1.000000    
     39 Ar2   c    0.791666    0.000000    0.499997     0.00000    1.000000    
     40 Ar2   c    0.750000    0.499997    0.499997     0.00000    1.000000    
     41 Ar2   c    0.833333    0.000000    0.000000     0.00000    1.000000    
     42 Ar2   c    0.875000    0.499997    0.000000     0.00000    1.000000    
     43 Ar2   c    0.875000    0.000000    0.499997     0.00000    1.000000    
     44 Ar2   c    0.833333    0.499997    0.499997     0.00000    1.000000    
     45 Ar2   c    0.916666    0.000000    0.000000     0.00000    1.000000    
     46 Ar2   c    0.958333    0.499997    0.000000     0.00000    1.000000    
     47 Ar2   c    0.958333    0.000000    0.499997     0.00000    1.000000    
     48 Ar2   c    0.916666    0.499997    0.499997     0.00000    1.000000    
--------------------------------------------------------------------------------


  Brillouin zone sampling points :

--------------------------------------------------------------------------------
  Point number          x          y          z            Weight
--------------------------------------------------------------------------------
        1           0.500000   0.500000   0.499900         1.0000
--------------------------------------------------------------------------------


********************************************************************************
*  General input information                                                   *
********************************************************************************

  Species output for all configurations : 

--------------------------------------------------------------------------------
  Species    Type    Atomic    Atomic    Charge       Radii (Angs)     Library
                     Number     Mass       (e)     Cova   Ionic  VDW   Symbol
--------------------------------------------------------------------------------
    Ar1      Core       18      39.95   0.000000   0.000  0.000  0.000          
    Ar2      Core       18     119.84   0.000000   0.000  0.000  0.000          
--------------------------------------------------------------------------------


  Lattice summation method               =    Ewald          (3-D)
                                         =    Parry          (2-D)
                                         =    Saunders et al (1-D)
  Accuracy factor for lattice sums       =   12.000


  Time limit = Infinity

  Maximum range for interatomic potentials =    100000.000000 Angstroms

  General interatomic potentials :

--------------------------------------------------------------------------------
Atom  Types   Potential         A         B         C         D     Cutoffs(Ang)
  1     2                                                            Min    Max 
--------------------------------------------------------------------------------
Ar1  c Ar1  c Lennard 12  6 0.995E+05  64.4      0.00      0.00     0.000  8.500
Ar2  c Ar2  c Lennard 12  6 0.995E+05  64.4      0.00      0.00     0.000  8.500
Ar1  c Ar2  c Lennard 12  6 0.995E+05  64.4      0.00      0.00     0.000  8.500
--------------------------------------------------------------------------------

********************************************************************************
*  Output for configuration   1                                                *
********************************************************************************


  Components of energy : 

--------------------------------------------------------------------------------
  Interatomic potentials     =          -4.04177973 eV
  Monopole - monopole (real) =           0.00000000 eV
  Monopole - monopole (recip)=           0.00000000 eV
  Monopole - monopole (total)=           0.00000000 eV
--------------------------------------------------------------------------------
  Total lattice energy       =          -4.04177973 eV
--------------------------------------------------------------------------------
  Total lattice energy       =            -389.9700 kJ/(mole unit cells)
--------------------------------------------------------------------------------


  Elastic Constant Matrix: (Units=GPa)

-------------------------------------------------------------------------------
  Indices      1         2         3         4         5         6    
-------------------------------------------------------------------------------
       1      3.4833    1.9414    1.9414    0.0000    0.0000    0.0000
       2      1.9414    3.4833    1.9413    0.0000    0.0000    0.0000
       3      1.9414    1.9413    3.4833    0.0000    0.0000    0.0000
       4      0.0000    0.0000    0.0000    2.0113    0.0000    0.0000
       5      0.0000    0.0000    0.0000    0.0000    2.0114    0.0000
       6      0.0000    0.0000    0.0000    0.0000    0.0000    2.0114
-------------------------------------------------------------------------------


  Elastic Compliance Matrix: (Units=1/GPa)

-------------------------------------------------------------------------------
  Indices      1         2         3         4         5         6    
-------------------------------------------------------------------------------
       1    0.477625 -0.170937 -0.170937  0.000000  0.000000  0.000000
       2   -0.170937  0.477600 -0.170900  0.000000  0.000000  0.000000
       3   -0.170937 -0.170900  0.477600  0.000000  0.000000  0.000000
       4    0.000000  0.000000  0.000000  0.497197  0.000000  0.000000
       5    0.000000  0.000000  0.000000  0.000000  0.497168  0.000000
       6    0.000000  0.000000  0.000000  0.000000  0.000000  0.497168
-------------------------------------------------------------------------------

  Mechanical properties :

-------------------------------------------------------------------------------
  Convention :                    Reuss         Voigt         Hill
-------------------------------------------------------------------------------
  Bulk  Modulus (GPa)     =       2.45533       2.45533       2.45533
  Shear Modulus (GPa)     =       1.22379       1.51520       1.36950
-------------------------------------------------------------------------------
  Velocity S-wave (km/s)  =       0.58842       0.65474       0.62246
  Velocity P-wave (km/s)  =       1.07532       1.12528       1.10058
-------------------------------------------------------------------------------
  Compressibility (1/GPa) =    0.40727655
-------------------------------------------------------------------------------
  Stress axis :                     x             y             z
-------------------------------------------------------------------------------
  Youngs Moduli (GPa)     =       2.09369       2.09380       2.09380
-------------------------------------------------------------------------------
  Poissons Ratio (x)      =                     0.35791       0.35791
  Poissons Ratio (y)      =       0.35789                     0.35783
  Poissons Ratio (z)      =       0.35789       0.35783
-------------------------------------------------------------------------------


  Piezoelectric Strain Matrix: (Units=C/m**2)

-------------------------------------------------------------------------------
  Indices      1         2         3         4         5         6    
-------------------------------------------------------------------------------
       x     0.00000   0.00000   0.00000   0.00000   0.00000   0.00000
       y     0.00000   0.00000   0.00000   0.00000   0.00000   0.00000
       z     0.00000   0.00000   0.00000   0.00000   0.00000   0.00000
-------------------------------------------------------------------------------


  Piezoelectric Stress Matrix: (Units=10**-11 C/N)

-------------------------------------------------------------------------------
  Indices      1         2         3         4         5         6    
-------------------------------------------------------------------------------
       x     0.00000   0.00000   0.00000   0.00000   0.00000   0.00000
       y     0.00000   0.00000   0.00000   0.00000   0.00000   0.00000
       z     0.00000   0.00000   0.00000   0.00000   0.00000   0.00000
-------------------------------------------------------------------------------


  Static dielectric constant tensor : 

-------------------------------------------------------------------------------
              x         y         z
-------------------------------------------------------------------------------
       x     1.00000   0.00000   0.00000
       y     0.00000   1.00000   0.00000
       z     0.00000   0.00000   1.00000
--------------------------------------------------------------------------------

  Static refractive indices : 

-------------------------------------------------------------------------------
    1 =    1.00000      2 =    1.00000      3 =    1.00000
-------------------------------------------------------------------------------


  Phonon Calculation : 

  Number of k points for this configuration =        1

--------------------------------------------------------------------------------
  K point      1 =   0.500000  0.500000  0.499900  Weight =    1.000
--------------------------------------------------------------------------------

 Frequencies (cm-1) and Eigenvectors : 

 Frequency      16.2414             16.2419             16.2441
 IR Intensity    0.0000              0.0000              0.0000
    in X         0.0000              0.0000              0.0000
    in Y         0.0000              0.0000              0.0000
    in Z         0.0000              0.0000              0.0000
 Raman Intsty    0.0000              0.0000              0.0000

                Real    Imaginary   Real    Imaginary   Real    Imaginary

     1 x       0.000000  0.000000  0.000000  0.000000  0.000000  0.000000
     1 y      -0.000056 -0.000015 -0.000052 -0.000014 -0.000015 -0.000004
     1 z      -0.000003  0.000058  0.000003 -0.000054  0.000001 -0.000015
     2 x       0.000000  0.000000  0.000000  0.000000  0.000000  0.000000
     2 y       0.000016 -0.000039 -0.000017  0.000040  0.000026 -0.000062
     2 z       0.000041  0.000008  0.000043  0.000008 -0.000065 -0.000013
     3 x       0.000000  0.000000  0.000000  0.000000  0.000000  0.000000
     3 y      -0.000041 -0.000008 -0.000043 -0.000008  0.000065  0.000013
     3 z      -0.000016  0.000039  0.000017 -0.000040 -0.000025  0.000062
     4 x       0.000000  0.000000  0.000000  0.000000  0.000000  0.000000
     4 y       0.000003 -0.000057 -0.000003  0.000054 -0.000001  0.000016
     4 z       0.000056  0.000015  0.000053  0.000014  0.000015  0.000004
     5 x       0.000000  0.000000  0.000000  0.000000  0.000000  0.000000
     5 y       0.000000  0.000000  0.000000  0.000000  0.000000  0.000000
     5 z       0.000000  0.000000  0.000000  0.000000  0.000000  0.000000
     6 x       0.000000  0.000000  0.000000  0.000000  0.000000  0.000000
     6 y       0.000000  0.000000  0.000000  0.000000  0.000000  0.000000
     6 z       0.000000  0.000000  0.000000  0.000000  0.000000  0.000000
     7 x       0.000000  0.000000  0.000000  0.000000  0.000000  0.000000
     7 y       0.000000  0.000000  0.000000  0.000000  0.000000  0.000000
     7 z       0.000000  0.000000  0.000000  0.000000  0.000000  0.000000
     8 x       0.000000  0.000000  0.000000  0.000000  0.000000  0.000000
     8 y       0.000000  0.000000  0.000000  0.000000  0.000000  0.000000
     8 z       0.000000  0.000000  0.000000  0.000000  0.000000  0.000000
     9 x       0.000000  0.000000  0.000000  0.000000  0.000000  0.000000
     9 y       0.000000  0.000000  0.000000  0.000000  0.000000  0.000000
     9 z       0.000000  0.000000  0.000000  0.000000  0.000000  0.000000
    10 x       0.000000  0.000000  0.000000  0.000000  0.000000  0.000000
    10 y       0.000000  0.000000  0.000000  0.000000  0.000000  0.000000
    10 z       0.000000  0.000000  0.000000  0.000000  0.000000  0.000000
    11 x       0.000000  0.000000  0.000000  0.000000  0.000000  0.000000
    11 y       0.000000  0.000000  0.000000  0.000000  0.000000  0.000000
    11 z       0.000000  0.000000  0.000000  0.000000  0.000000  0.000000
    12 x       0.000000  0.000000  0.000000  0.000000  0.000000  0.000000
    12 y       0.000000  0.000000  0.000000  0.000000  0.000000  0.000000
    12 z       0.000000  0.000000  0.000000  0.000000  0.000000  0.000000
    13 x       0.000000  0.000000  0.000000  0.000000  0.000000  0.000000
    13 y       0.000000  0.000000  0.000000  0.000000  0.000000  0.000000
    13 z       0.000000  0.000000  0.000000  0.000000  0.000000  0.000000
    14 x       0.000000  0.000000  0.000000  0.000000  0.000000  0.000000
    14 y       0.000000  0.000000  0.000000  0.000000  0.000000  0.000000
    14 z       0.000000  0.000000  0.000000  0.000000  0.000000  0.000000
    15 x       0.000000  0.000000  0.000000  0.000000  0.000000  0.000000
    15 y       0.000000  0.000000  0.000000  0.000000  0.000000  0.000000
    15 z       0.000000  0.000000  0.000000  0.000000  0.000000  0.000000
    16 x       0.000000  0.000000  0.000000  0.000000  0.000000  0.000000
    16 y       0.000000  0.000000  0.000000  0.000000  0.000000  0.000000
    16 z       0.000000  0.000000  0.000000  0.000000  0.000000  0.000000
    17 x       0.000000  0.000000  0.000000  0.000000  0.000000  0.000000
    17 y       0.000000  0.000000  0.000000  0.000000  0.000000  0.000000
    17 z       0.000000  0.000000  0.000000  0.000000  0.000000  0.000000
    18 x       0.000000  0.000000  0.000000  0.000000  0.000000  0.000000
    18 y       0.000000  0.000000  0.000000  0.000000  0.000000  0.000000
    18 z       0.000000  0.000000  0.000000  0.000000  0.000000  0.000000
    19 x       0.000000  0.000000  0.000000  0.000000  0.000000  0.000000
    19 y       0.000000  0.000000  0.000000  0.000000  0.000000  0.000000
    19 z       0.000000  0.000000  0.000000  0.000000  0.000000  0.000000
    20 x       0.000000  0.000000  0.000000  0.000000  0.000000  0.000000
    20 y       0.000000  0.000000  0.000000  0.000000  0.000000  0.000000
    20 z       0.000000  0.000000  0.000000  0.000000  0.000000  0.000000
    21 x       0.000000  0.000000  0.000000  0.000000  0.000000  0.000000
    21 y       0.000000  0.000040  0.000000  0.000041  0.000000  0.000063
    21 z       0.000039 -0.000008 -0.000040  0.000008 -0.000062  0.000013
    22 x       0.000000  0.000000  0.000000  0.000000  0.000000  0.000000
    22 y      -0.000056 -0.000007  0.000053  0.000007 -0.000015 -0.000002
    22 z      -0.000004 -0.000057 -0.000004 -0.000054  0.000001  0.000014
    23 x       0.000000  0.000000  0.000000  0.000000  0.000000  0.000000
    23 y       0.000004  0.000057  0.000004  0.000054 -0.000001 -0.000015
    23 z       0.000056  0.000007 -0.000053 -0.000007  0.000014  0.000002
    24 x       0.000000  0.000000  0.000000  0.000000  0.000000  0.000000
    24 y      -0.000039  0.000008  0.000041 -0.000008  0.000062 -0.000013
    24 z       0.000000 -0.000040  0.000000 -0.000041  0.000000 -0.000063
    25 x       0.000002 -0.000009 -0.000003  0.000013 -0.000004  0.000018
    25 y      -0.018651  0.069600 -0.019180  0.071578 -0.029406  0.109732
    25 z       0.071927  0.004314 -0.073971 -0.004438 -0.113401 -0.006799
    26 x      -0.000010 -0.000004 -0.000014 -0.000005  0.000008  0.000003
    26 y      -0.082975 -0.034372  0.081542  0.033778 -0.036005 -0.014912
    26 z       0.017036 -0.088201  0.016744 -0.086686 -0.007382  0.038226
    27 x       0.000003 -0.000011 -0.000004  0.000014  0.000002 -0.000008
    27 y      -0.017031  0.088183 -0.016738  0.086660  0.007391 -0.038264
    27 z       0.082993  0.034378 -0.081567 -0.033787  0.035969  0.014899
    28 x      -0.000009 -0.000001 -0.000013 -0.000001 -0.000018 -0.000002
    28 y      -0.071926 -0.004313  0.073971  0.004437  0.113400  0.006797
    28 z       0.018649 -0.069601  0.019179 -0.071579  0.029404 -0.109734
    29 x       0.000000  0.000001  0.000001 -0.000002  0.000002 -0.000004
    29 y      -0.068999  0.119501 -0.069780  0.120855 -0.093145  0.161325
    29 z       0.130933  0.043638 -0.132423 -0.044137 -0.176713 -0.058891
    30 x       0.000002  0.000001  0.000002  0.000002  0.000000  0.000000
    30 y      -0.123419 -0.094707  0.122275  0.093829 -0.076101 -0.058393
    30 z       0.068038 -0.139921  0.067411 -0.138629 -0.041933  0.086238
    31 x      -0.000001  0.000002  0.000001 -0.000003  0.000000  0.000000
    31 y      -0.068029  0.139906 -0.067400  0.138608  0.041947 -0.086264
    31 z       0.123433  0.094717 -0.122294 -0.093842  0.076076  0.058376
    32 x       0.000001  0.000000  0.000002  0.000001  0.000004  0.000002
    32 y      -0.130913 -0.043627  0.132395  0.044123  0.176729  0.058894
    32 z       0.069007 -0.119523  0.069792 -0.120884  0.093134 -0.161312
    33 x       0.000004 -0.000005 -0.000006  0.000007 -0.000004  0.000004
    33 y      -0.127354  0.127346 -0.127568  0.127562 -0.141386  0.141381
    33 z       0.150316  0.099237 -0.150573 -0.099410 -0.166850 -0.110148
    34 x      -0.000004 -0.000005 -0.000005 -0.000006  0.000007  0.000009
    34 y      -0.114127 -0.148741  0.113804  0.148319 -0.096131 -0.125279
    34 z       0.122850 -0.141663  0.122511 -0.141268 -0.103428  0.119271
    35 x       0.000004 -0.000004 -0.000006  0.000006  0.000008 -0.000008
    35 y      -0.122828  0.141641 -0.122482  0.141238  0.103457 -0.119301
    35 z       0.114148  0.148764 -0.113831 -0.148351  0.096104  0.125248
    36 x      -0.000005 -0.000004 -0.000007 -0.000005 -0.000005 -0.000003
    36 y      -0.150303 -0.099223  0.150555  0.099392  0.166866  0.110155
    36 z       0.127364 -0.127363  0.127583 -0.127583  0.141371 -0.141371
    37 x      -0.000005  0.000003  0.000007 -0.000004  0.000009 -0.000006
    37 y      -0.162175  0.093625 -0.161359  0.093154 -0.140706  0.081235
    37 z       0.124268  0.140126 -0.123649 -0.139431 -0.107776 -0.121525
    38 x       0.000003  0.000006  0.000004  0.000008 -0.000003 -0.000006
    38 y      -0.069381 -0.167510  0.069689  0.168252 -0.075616 -0.182556
    38 z       0.150208 -0.101577  0.150879 -0.102028 -0.163666  0.110682
    39 x      -0.000006  0.000003  0.000008 -0.000005 -0.000005  0.000003
    39 y      -0.150192  0.101568 -0.150858  0.102015  0.163682 -0.110692
    39 z       0.069389  0.167527 -0.069699 -0.168275  0.075608  0.182539
    40 x       0.000004  0.000005  0.000005  0.000006  0.000007  0.000009
    40 y      -0.124252 -0.140099  0.123625  0.139396  0.107804  0.121555
    40 z       0.162199 -0.093645  0.161393 -0.093180  0.140670 -0.081216
    41 x       0.000002 -0.000001 -0.000003  0.000001  0.000001  0.000000
    41 y      -0.150754  0.040390 -0.149044  0.039932 -0.096696  0.025910
    41 z       0.069811  0.139607 -0.069021 -0.138030 -0.044761 -0.089510
    42 x       0.000000 -0.000001  0.000000 -0.000002  0.000001  0.000006
    42 y      -0.018309 -0.139096  0.018588  0.141204 -0.024545 -0.186449
    42 z       0.132620 -0.045841  0.134638 -0.046536 -0.177722  0.061435
    43 x       0.000001  0.000000 -0.000002  0.000001  0.000006 -0.000002
    43 y      -0.132598  0.045835 -0.134608  0.046528  0.177738 -0.061440
    43 z       0.018314  0.139119 -0.018593 -0.141235  0.024542  0.186432
    44 x      -0.000001 -0.000002 -0.000001 -0.000003  0.000000  0.000001
    44 y      -0.069807 -0.139589  0.069014  0.138007  0.044775  0.089536
    44 z       0.150770 -0.040398  0.149066 -0.039942  0.096668 -0.025903
    45 x      -0.000011  0.000001  0.000015 -0.000001  0.000008  0.000000
    45 y      -0.090510 -0.000003 -0.088732 -0.000003 -0.041053  0.000001
    45 z       0.018153  0.088691 -0.017797 -0.086957 -0.008225 -0.040179
    46 x      -0.000001  0.000010 -0.000001  0.000013  0.000002 -0.000019
    46 y       0.009861 -0.074897 -0.010196  0.077442  0.015599 -0.118472
    46 z       0.075354 -0.005359  0.077914 -0.005540 -0.119194  0.008480
    47 x      -0.000010  0.000000  0.000013  0.000000 -0.000019  0.000000
    47 y      -0.075353  0.005359 -0.077913  0.005540  0.119193 -0.008480
    47 z      -0.009861  0.074898  0.010196 -0.077443 -0.015599  0.118472
    48 x       0.000001  0.000011  0.000002  0.000014  0.000001  0.000008
    48 y      -0.018152 -0.088671  0.017795  0.086930  0.008232  0.040219
    48 z       0.090530  0.000000  0.088760  0.000000  0.041012  0.000000


 Frequency      16.2443             16.2449             16.2450
 IR Intensity    0.0000              0.0000              0.0000
    in X         0.0000              0.0000              0.0000
    in Y         0.0000              0.0000              0.0000
    in Z         0.0000              0.0000              0.0000
 Raman Intsty    0.0000              0.0000              0.0000

                Real    Imaginary   Real    Imaginary   Real    Imaginary

     1 x      -0.000001  0.000000  0.000000  0.000000  0.000001  0.000000
     1 y      -0.000060 -0.000016 -0.000085 -0.000023 -0.000099 -0.000026
     1 z      -0.000004  0.000063 -0.000005  0.000089  0.000006 -0.000103
     2 x       0.000000  0.000000  0.000000  0.000000  0.000000  0.000000
     2 y       0.000035 -0.000085  0.000001 -0.000003 -0.000025  0.000061
     2 z       0.000090  0.000017  0.000003  0.000001  0.000064  0.000012
     3 x       0.000000  0.000000  0.000000  0.000000  0.000000  0.000000
     3 y      -0.000090 -0.000017 -0.000003 -0.000001 -0.000065 -0.000012
     3 z      -0.000035  0.000084 -0.000001  0.000003  0.000025 -0.000060
     4 x       0.000000  0.000001  0.000000  0.000000  0.000000  0.000001
     4 y       0.000004 -0.000062  0.000005 -0.000088 -0.000006  0.000102
     4 z       0.000061  0.000016  0.000086  0.000023  0.000100  0.000027
     5 x       0.000000  0.000000  0.000000  0.000000  0.000000  0.000000
     5 y       0.000000  0.000000  0.000000  0.000000  0.000000  0.000000
     5 z       0.000000  0.000000  0.000000  0.000000  0.000000  0.000000
     6 x       0.000000  0.000000  0.000000  0.000000  0.000000  0.000000
     6 y       0.000000  0.000000  0.000000  0.000000  0.000000  0.000000
     6 z       0.000000  0.000000  0.000000  0.000000  0.000000  0.000000
     7 x       0.000000  0.000000  0.000000  0.000000  0.000000  0.000000
     7 y       0.000000  0.000000  0.000000  0.000000  0.000000  0.000000
     7 z       0.000000  0.000000  0.000000  0.000000  0.000000  0.000000
     8 x       0.000000  0.000000  0.000000  0.000000  0.000000  0.000000
     8 y       0.000000  0.000000  0.000000  0.000000  0.000000  0.000000
     8 z       0.000000  0.000000  0.000000  0.000000  0.000000  0.000000
     9 x       0.000000  0.000000  0.000000  0.000000  0.000000  0.000000
     9 y       0.000000  0.000000  0.000000  0.000000  0.000000  0.000000
     9 z       0.000000  0.000000  0.000000  0.000000  0.000000  0.000000
    10 x       0.000000  0.000000  0.000000  0.000000  0.000000  0.000000
    10 y       0.000000  0.000000  0.000000  0.000000  0.000000  0.000000
    10 z       0.000000  0.000000  0.000000  0.000000  0.000000  0.000000
    11 x       0.000000  0.000000  0.000000  0.000000  0.000000  0.000000
    11 y       0.000000  0.000000  0.000000  0.000000  0.000000  0.000000
    11 z       0.000000  0.000000  0.000000  0.000000  0.000000  0.000000
    12 x       0.000000  0.000000  0.000000  0.000000  0.000000  0.000000
    12 y       0.000000  0.000000  0.000000  0.000000  0.000000  0.000000
    12 z       0.000000  0.000000  0.000000  0.000000  0.000000  0.000000
    13 x       0.000000  0.000000  0.000000  0.000000  0.000000  0.000000
    13 y       0.000000  0.000000  0.000000  0.000000  0.000000  0.000000
    13 z       0.000000  0.000000  0.000000  0.000000  0.000000  0.000000
    14 x       0.000000  0.000000  0.000000  0.000000  0.000000  0.000000
    14 y       0.000000  0.000000  0.000000  0.000000  0.000000  0.000000
    14 z       0.000000  0.000000  0.000000  0.000000  0.000000  0.000000
    15 x       0.000000  0.000000  0.000000  0.000000  0.000000  0.000000
    15 y       0.000000  0.000000  0.000000  0.000000  0.000000  0.000000
    15 z       0.000000  0.000000  0.000000  0.000000  0.000000  0.000000
    16 x       0.000000  0.000000  0.000000  0.000000  0.000000  0.000000
    16 y       0.000000  0.000000  0.000000  0.000000  0.000000  0.000000
    16 z       0.000000  0.000000  0.000000  0.000000  0.000000  0.000000
    17 x       0.000000  0.000000  0.000000  0.000000  0.000000  0.000000
    17 y       0.000000  0.000000  0.000000  0.000000  0.000000  0.000000
    17 z       0.000000  0.000000  0.000000  0.000000  0.000000  0.000000
    18 x       0.000000  0.000000  0.000000  0.000000  0.000000  0.000000
    18 y       0.000000  0.000000  0.000000  0.000000  0.000000  0.000000
    18 z       0.000000  0.000000  0.000000  0.000000  0.000000  0.000000
    19 x       0.000000  0.000000  0.000000  0.000000  0.000000  0.000000
    19 y       0.000000  0.000000  0.000000  0.000000  0.000000  0.000000
    19 z       0.000000  0.000000  0.000000  0.000000  0.000000  0.000000
    20 x       0.000000  0.000000  0.000000  0.000000  0.000000  0.000000
    20 y       0.000000  0.000000  0.000000  0.000000  0.000000  0.000000
    20 z       0.000000  0.000000  0.000000  0.000000  0.000000  0.000000
    21 x       0.000000  0.000000  0.000000  0.000000  0.000000  0.000000
    21 y       0.000000 -0.000087  0.000000 -0.000003  0.000000 -0.000061
    21 z      -0.000085  0.000017 -0.000003  0.000001  0.000060 -0.000012
    22 x       0.000001  0.000000  0.000000  0.000000  0.000001  0.000000
    22 y       0.000062  0.000008  0.000088  0.000012 -0.000102 -0.000013
    22 z       0.000004  0.000063  0.000006  0.000089  0.000007  0.000104
    23 x       0.000000  0.000001  0.000000  0.000000  0.000000 -0.000001
    23 y      -0.000004 -0.000062 -0.000006 -0.000088 -0.000007 -0.000103
    23 z      -0.000063 -0.000008 -0.000088 -0.000012  0.000104  0.000014
    24 x       0.000000  0.000000  0.000000  0.000000  0.000000  0.000000
    24 y       0.000085 -0.000017  0.000003 -0.000001 -0.000060  0.000012
    24 z       0.000000  0.000087  0.000000  0.000003  0.000000  0.000061
    25 x      -0.000003  0.000017  0.000000 -0.000001  0.000003 -0.000015
    25 y       0.040199 -0.150024  0.001404 -0.005236  0.028292 -0.105580
    25 z      -0.155040 -0.009291 -0.005414 -0.000324  0.109114  0.006542
    26 x       0.000007  0.000002  0.000017  0.000006  0.000022  0.000008
    26 y       0.080167  0.033210  0.145938  0.060452 -0.160661 -0.066553
    26 z      -0.016457  0.085237 -0.029950  0.155097 -0.032978  0.170778
    27 x      -0.000002  0.000007 -0.000005  0.000017  0.000006 -0.000023
    27 y       0.016447 -0.085201  0.029950 -0.155098  0.032971 -0.170746
    27 z      -0.080202 -0.033222 -0.145937 -0.060452  0.160692  0.066564
    28 x       0.000017  0.000002 -0.000001  0.000000  0.000015  0.000002
    28 y       0.155038  0.009287  0.005412  0.000323 -0.109109 -0.006539
    28 z      -0.040196  0.150027 -0.001405  0.005238 -0.028291  0.105585
    29 x       0.000002 -0.000005  0.000000 -0.000001 -0.000003  0.000006
    29 y       0.114858 -0.198937 -0.009374  0.016245  0.068173 -0.118069
    29 z      -0.217949 -0.072626  0.017757  0.005920  0.129395  0.043121
    30 x      -0.000005 -0.000004 -0.000006 -0.000004 -0.000009 -0.000007
    30 y       0.057001  0.043744  0.182434  0.139990 -0.174906 -0.134215
    30 z      -0.031426  0.064645 -0.100551  0.206803 -0.096412  0.198291
    31 x       0.000003 -0.000006  0.000003 -0.000006 -0.000006  0.000010
    31 y       0.031413 -0.064622  0.100553 -0.206806  0.096403 -0.198274
    31 z      -0.057024 -0.043759 -0.182432 -0.139988  0.174923  0.134227
    32 x      -0.000005 -0.000002 -0.000001  0.000000 -0.000006 -0.000002
    32 y       0.217934  0.072615 -0.017793 -0.005934 -0.129346 -0.043099
    32 z      -0.114861  0.198955  0.009357 -0.016211 -0.068195  0.118118
    33 x       0.000003 -0.000003  0.000007 -0.000008 -0.000009  0.000010
    33 y       0.127016 -0.127017 -0.068997  0.069001  0.029091 -0.029086
    33 z      -0.149915 -0.098962  0.081413  0.053748  0.034357  0.022679
    34 x      -0.000007 -0.000008  0.000000  0.000000 -0.000006 -0.000007
    34 y      -0.025817 -0.033639  0.117672  0.153352 -0.073530 -0.095827
    34 z       0.027769 -0.032021 -0.126620  0.146018 -0.079126  0.091249
    35 x       0.000008 -0.000008  0.000000  0.000000 -0.000007  0.000007
    35 y      -0.027782  0.032035  0.126637 -0.146036  0.079132 -0.091256
    35 z       0.025805  0.033625 -0.117656 -0.153333  0.073524  0.095820
    36 x      -0.000003 -0.000002 -0.000009 -0.000007 -0.000011 -0.000008
    36 y       0.149914  0.098957 -0.081434 -0.053761 -0.034334 -0.022661
    36 z      -0.127017  0.127023  0.068979 -0.068984 -0.029111  0.029109
    37 x       0.000009 -0.000006  0.000000  0.000000 -0.000008  0.000005
    37 y       0.041636 -0.024042 -0.167201  0.096533 -0.100287  0.057899
    37 z      -0.031888 -0.035957  0.128088  0.144426 -0.076830 -0.086630
    38 x      -0.000002 -0.000003 -0.000005 -0.000010 -0.000006 -0.000012
    38 y      -0.067667 -0.163356  0.037379  0.090231  0.015231  0.036778
    38 z       0.146468 -0.099057 -0.080884  0.054697  0.032998 -0.022317
    39 x       0.000003 -0.000002  0.000010 -0.000006 -0.000012  0.000007
    39 y      -0.146465  0.099056  0.080906 -0.054710 -0.032974  0.022302
    39 z       0.067669  0.163359 -0.037369 -0.090209 -0.015243 -0.036804
    40 x      -0.000006 -0.000008  0.000000  0.000000 -0.000006 -0.000007
    40 y       0.031900  0.035971 -0.128106 -0.144443  0.076838  0.086636
    40 z      -0.041620  0.024033  0.167178 -0.096523  0.100278 -0.057896
    41 x       0.000007 -0.000002  0.000006 -0.000002 -0.000011  0.000004
    41 y      -0.064871  0.017377 -0.221938  0.059464 -0.208053  0.055742
    41 z       0.030054  0.060087  0.102769  0.205499 -0.096349 -0.192661
    42 x      -0.000001 -0.000006  0.000000 -0.000001 -0.000001 -0.000008
    42 y      -0.030375 -0.230711  0.002431  0.018424  0.018342  0.139349
    42 z       0.219946 -0.076039 -0.017528  0.006056  0.132887 -0.045938
    43 x       0.000006 -0.000002  0.000001  0.000000 -0.000008  0.000002
    43 y      -0.219929  0.076035  0.017565 -0.006067 -0.132836  0.045924
    43 z       0.030378  0.230728 -0.002423 -0.018386 -0.018351 -0.139401
    44 x      -0.000003 -0.000007 -0.000003 -0.000006 -0.000005 -0.000011
    44 y      -0.030045 -0.060062 -0.102774 -0.205499  0.096345  0.192641
    44 z       0.064895 -0.017387  0.221934 -0.059468  0.208070 -0.055752
    45 x      -0.000007  0.000001 -0.000018  0.000001  0.000024 -0.000001
    45 y      -0.085029 -0.000004 -0.157905 -0.000003 -0.171320 -0.000005
    45 z       0.017064  0.083339  0.031669  0.154696 -0.034367 -0.167874
    46 x      -0.000001  0.000018  0.000000 -0.000001 -0.000001  0.000016
    46 y       0.021393 -0.162509  0.000759 -0.005750 -0.015337  0.116496
    46 z       0.163500 -0.011637  0.005787 -0.000413  0.117210 -0.008339
    47 x      -0.000018  0.000000  0.000001  0.000000  0.000016  0.000000
    47 y      -0.163498  0.011637 -0.005785  0.000413 -0.117205  0.008339
    47 z      -0.021393  0.162512 -0.000759  0.005752  0.015338 -0.116501
    48 x       0.000001  0.000007  0.000002  0.000018  0.000004  0.000023
    48 y      -0.017061 -0.083300 -0.031672 -0.154696  0.034364  0.167838
    48 z       0.085068  0.000000  0.157904  0.000000  0.171356  0.000000


 Frequency      16.2468             16.2472             16.2492
 IR Intensity    0.0000              0.0000              0.0000
    in X         0.0000              0.0000              0.0000
    in Y         0.0000              0.0000              0.0000
    in Z         0.0000              0.0000              0.0000
 Raman Intsty    0.0000              0.0000              0.0000

                Real    Imaginary   Real    Imaginary   Real    Imaginary

     1 x      -0.000001  0.000000  0.000001  0.000000  0.000000  0.000000
     1 y       0.000055  0.000015  0.000029  0.000008  0.000134  0.000036
     1 z      -0.000003  0.000055  0.000002 -0.000029  0.000008 -0.000138
     2 x       0.000000  0.000000  0.000000  0.000000  0.000000  0.000000
     2 y      -0.000038  0.000091  0.000042 -0.000102 -0.000026  0.000064
     2 z       0.000097  0.000019  0.000109  0.000021 -0.000068 -0.000013
     3 x       0.000000  0.000000  0.000000  0.000000  0.000000  0.000000
     3 y      -0.000097 -0.000019 -0.000109 -0.000021  0.000068  0.000013
     3 z       0.000038 -0.000092 -0.000043  0.000103  0.000026 -0.000064
     4 x       0.000000 -0.000001  0.000000 -0.000001  0.000000  0.000000
     4 y       0.000003 -0.000056 -0.000002  0.000030 -0.000008  0.000138
     4 z      -0.000053 -0.000014 -0.000028 -0.000007 -0.000134 -0.000036
     5 x       0.000000  0.000000  0.000000  0.000000  0.000000  0.000000
     5 y       0.000000  0.000000  0.000000  0.000000  0.000000  0.000000
     5 z       0.000000  0.000000  0.000000  0.000000  0.000000  0.000000
     6 x       0.000000  0.000000  0.000000  0.000000  0.000000  0.000000
     6 y       0.000000  0.000000  0.000000  0.000000  0.000000  0.000000
     6 z       0.000000  0.000000  0.000000  0.000000  0.000000  0.000000
     7 x       0.000000  0.000000  0.000000  0.000000  0.000000  0.000000
     7 y       0.000000  0.000000  0.000000  0.000000  0.000000  0.000000
     7 z       0.000000  0.000000  0.000000  0.000000  0.000000  0.000000
     8 x       0.000000  0.000000  0.000000  0.000000  0.000000  0.000000
     8 y       0.000000  0.000000  0.000000  0.000000  0.000000  0.000000
     8 z       0.000000  0.000000  0.000000  0.000000  0.000000  0.000000
     9 x       0.000000  0.000000  0.000000  0.000000  0.000000  0.000000
     9 y       0.000000  0.000000  0.000000  0.000000  0.000000  0.000000
     9 z       0.000000  0.000000  0.000000  0.000000  0.000000  0.000000
    10 x       0.000000  0.000000  0.000000  0.000000  0.000000  0.000000
    10 y       0.000000  0.000000  0.000000  0.000000  0.000000  0.000000
    10 z       0.000000  0.000000  0.000000  0.000000  0.000000  0.000000
    11 x       0.000000  0.000000  0.000000  0.000000  0.000000  0.000000
    11 y       0.000000  0.000000  0.000000  0.000000  0.000000  0.000000
    11 z       0.000000  0.000000  0.000000  0.000000  0.000000  0.000000
    12 x       0.000000  0.000000  0.000000  0.000000  0.000000  0.000000
    12 y       0.000000  0.000000  0.000000  0.000000  0.000000  0.000000
    12 z       0.000000  0.000000  0.000000  0.000000  0.000000  0.000000
    13 x       0.000000  0.000000  0.000000  0.000000  0.000000  0.000000
    13 y       0.000000  0.000000  0.000000  0.000000  0.000000  0.000000
    13 z       0.000000  0.000000  0.000000  0.000000  0.000000  0.000000
    14 x       0.000000  0.000000  0.000000  0.000000  0.000000  0.000000
    14 y       0.000000  0.000000  0.000000  0.000000  0.000000  0.000000
    14 z       0.000000  0.000000  0.000000  0.000000  0.000000  0.000000
    15 x       0.000000  0.000000  0.000000  0.000000  0.000000  0.000000
    15 y       0.000000  0.000000  0.000000  0.000000  0.000000  0.000000
    15 z       0.000000  0.000000  0.000000  0.000000  0.000000  0.000000
    16 x       0.000000  0.000000  0.000000  0.000000  0.000000  0.000000
    16 y       0.000000  0.000000  0.000000  0.000000  0.000000  0.000000
    16 z       0.000000  0.000000  0.000000  0.000000  0.000000  0.000000
    17 x       0.000000  0.000000  0.000000  0.000000  0.000000  0.000000
    17 y       0.000000  0.000000  0.000000  0.000000  0.000000  0.000000
    17 z       0.000000  0.000000  0.000000  0.000000  0.000000  0.000000
    18 x       0.000000  0.000000  0.000000  0.000000  0.000000  0.000000
    18 y       0.000000  0.000000  0.000000  0.000000  0.000000  0.000000
    18 z       0.000000  0.000000  0.000000  0.000000  0.000000  0.000000
    19 x       0.000000  0.000000  0.000000  0.000000  0.000000  0.000000
    19 y       0.000000  0.000000  0.000000  0.000000  0.000000  0.000000
    19 z       0.000000  0.000000  0.000000  0.000000  0.000000  0.000000
    20 x       0.000000  0.000000  0.000000  0.000000  0.000000  0.000000
    20 y       0.000000  0.000000  0.000000  0.000000  0.000000  0.000000
    20 z       0.000000  0.000000  0.000000  0.000000  0.000000  0.000000
    21 x       0.000000  0.000000  0.000000  0.000000  0.000000  0.000000
    21 y       0.000000  0.000097  0.000000  0.000108  0.000000 -0.000064
    21 z      -0.000096  0.000020  0.000106 -0.000022 -0.000063  0.000013
    22 x       0.000001  0.000000  0.000001  0.000000  0.000000  0.000000
    22 y      -0.000052 -0.000007  0.000027  0.000004  0.000139  0.000018
    22 z       0.000004  0.000051  0.000002  0.000026  0.000010  0.000140
    23 x       0.000000 -0.000001  0.000000  0.000001  0.000000  0.000000
    23 y      -0.000004 -0.000053 -0.000002 -0.000027 -0.000010 -0.000140
    23 z       0.000051  0.000007 -0.000026 -0.000003 -0.000139 -0.000018
    24 x       0.000000  0.000000  0.000000  0.000000  0.000000  0.000000
    24 y       0.000095 -0.000020 -0.000106  0.000022  0.000063 -0.000013
    24 z       0.000000 -0.000098  0.000000 -0.000108  0.000000  0.000064
    25 x      -0.000005  0.000025  0.000004 -0.000022 -0.000003  0.000016
    25 y      -0.045293  0.169020 -0.050163  0.187176  0.029744 -0.110990
    25 z      -0.174666 -0.010464  0.193432  0.011594 -0.114704 -0.006865
    26 x       0.000013  0.000005  0.000006  0.000002  0.000026  0.000009
    26 y      -0.104249 -0.043180  0.074207  0.030735  0.214598  0.088895
    26 z      -0.021380  0.110737 -0.015222  0.078817 -0.044028  0.228103
    27 x       0.000003 -0.000013 -0.000002  0.000006 -0.000007  0.000026
    27 y       0.021393 -0.110791  0.015234 -0.078862  0.044020 -0.228072
    27 z       0.104196  0.043161 -0.074163 -0.030720 -0.214628 -0.088906
    28 x      -0.000026 -0.000003 -0.000022 -0.000003  0.000016  0.000002
    28 y       0.174670  0.010460 -0.193435 -0.011590  0.114702  0.006863
    28 z       0.045288 -0.169017  0.050159 -0.187175 -0.029742  0.110993
    29 x       0.000008 -0.000015 -0.000008  0.000015  0.000012 -0.000025
    29 y      -0.100728  0.174461 -0.104194  0.180455  0.017132 -0.029662
    29 z      -0.191091 -0.063673  0.197673  0.065874 -0.032552 -0.010843
    30 x       0.000000  0.000000  0.000004  0.000003 -0.000033 -0.000022
    30 y      -0.129966 -0.099727  0.117638  0.090269  0.097730  0.074991
    30 z      -0.071619  0.147311 -0.064836  0.133342 -0.053845  0.110768
    31 x       0.000000  0.000001 -0.000003  0.000005  0.000020 -0.000034
    31 y       0.071629 -0.147329  0.064841 -0.133353  0.053858 -0.110789
    31 z       0.129949  0.099715 -0.117628 -0.090263 -0.097710 -0.074977
    32 x       0.000016  0.000006  0.000016  0.000007 -0.000026 -0.000011
    32 y       0.191122  0.063681 -0.197689 -0.065876  0.032500  0.010821
    32 z       0.100710 -0.174435  0.104184 -0.180443 -0.017157  0.029713
    33 x       0.000006 -0.000007 -0.000004  0.000004 -0.000004  0.000004
    33 y      -0.051970  0.051971 -0.038427  0.038428 -0.107932  0.107927
    33 z      -0.061313 -0.040473  0.045331  0.029926  0.127408  0.084094
    34 x      -0.000010 -0.000012 -0.000009 -0.000010  0.000003  0.000004
    34 y      -0.057725 -0.075231  0.068817  0.089692 -0.081397 -0.106085
    34 z      -0.062120  0.071643 -0.074063  0.085412  0.087600 -0.101042
    35 x      -0.000011  0.000011  0.000009 -0.000009 -0.000003  0.000003
    35 y       0.062121 -0.071644  0.074063 -0.085412 -0.087590  0.101032
    35 z       0.057724  0.075230 -0.068817 -0.089692  0.081406  0.106096
    36 x       0.000007  0.000005  0.000004  0.000003  0.000004  0.000003
    36 y       0.061339  0.040490 -0.045353 -0.029941 -0.127392 -0.084077
    36 z       0.051948 -0.051949  0.038409 -0.038409  0.107945 -0.107947
    37 x       0.000013 -0.000008 -0.000011  0.000007  0.000004 -0.000002
    37 y       0.080693 -0.046585  0.095108 -0.054904 -0.112634  0.065023
    37 z       0.061826  0.069705 -0.072868 -0.082160  0.086314  0.097303
    38 x      -0.000003 -0.000007 -0.000002 -0.000004 -0.000003 -0.000006
    38 y       0.024344  0.058769 -0.016763 -0.040464 -0.061679 -0.148912
    38 z       0.052667 -0.035620  0.036260 -0.024521  0.133525 -0.090317
    39 x      -0.000006  0.000004  0.000004 -0.000002  0.000006 -0.000003
    39 y      -0.052693  0.035636 -0.036283  0.024534 -0.133506  0.090306
    39 z      -0.024331 -0.058741  0.016751  0.040441  0.061688  0.148932
    40 x       0.000010  0.000012  0.000008  0.000010 -0.000003 -0.000004
    40 y      -0.061828 -0.069705  0.072870  0.082158 -0.086307 -0.097290
    40 z      -0.080691  0.046586 -0.095107  0.054906  0.112644 -0.065033
    41 x       0.000002 -0.000001  0.000004 -0.000001 -0.000036  0.000012
    41 y       0.164817 -0.044161  0.148038 -0.039663  0.114973 -0.030806
    41 z       0.076317  0.152593 -0.068544 -0.137067 -0.053237 -0.106430
    42 x      -0.000003 -0.000019 -0.000004 -0.000019  0.000006  0.000030
    42 y       0.025192  0.191353 -0.026268 -0.199565  0.004241  0.032259
    42 z       0.182377 -0.063055  0.190223 -0.065760 -0.030802  0.010653
    43 x      -0.000018  0.000005  0.000018 -0.000005 -0.000029  0.000008
    43 y      -0.182410  0.063064 -0.190240  0.065764  0.030749 -0.010638
    43 z      -0.025186 -0.191319  0.026265  0.199548 -0.004252 -0.032314
    44 x       0.000001  0.000002 -0.000002 -0.000004  0.000015  0.000035
    44 y      -0.076327 -0.152607  0.068551  0.137073  0.053249  0.106454
    44 z      -0.164800  0.044159 -0.148028  0.039663 -0.114947  0.030800
    45 x      -0.000015  0.000001  0.000007 -0.000001  0.000026 -0.000002
    45 y       0.119799  0.000000  0.085606 -0.000001  0.227686  0.000007
    45 z       0.024019  0.117309 -0.017158 -0.083820 -0.045689 -0.223089
    46 x      -0.000002  0.000026 -0.000001  0.000023  0.000001 -0.000017
    46 y      -0.023142  0.175765  0.025971 -0.197209 -0.016165  0.122762
    46 z       0.176830 -0.012590  0.198407 -0.014120 -0.123511  0.008801
    47 x       0.000026 -0.000001 -0.000023  0.000000  0.000017  0.000000
    47 y      -0.176834  0.012590 -0.198410  0.014120  0.123509 -0.008801
    47 z       0.023142 -0.175760 -0.025970  0.197206  0.016165 -0.122765
    48 x      -0.000002 -0.000015 -0.000001 -0.000007 -0.000004 -0.000026
    48 y      -0.024030 -0.117364  0.017166  0.083867  0.045689  0.223054
    48 z      -0.119743  0.000000 -0.085559  0.000000 -0.227720  0.000000


 Frequency      16.2494             16.2508             16.2511
 IR Intensity    0.0000              0.0000              0.0000
    in X         0.0000              0.0000              0.0000
    in Y         0.0000              0.0000              0.0000
    in Z         0.0000              0.0000              0.0000
 Raman Intsty    0.0000              0.0000              0.0000

                Real    Imaginary   Real    Imaginary   Real    Imaginary

     1 x       0.000000  0.000000  0.000000  0.000000  0.000000  0.000000
     1 y       0.000121  0.000033  0.000075  0.000020  0.000054  0.000015
     1 z      -0.000008  0.000126 -0.000005  0.000076  0.000003 -0.000055
     2 x       0.000000  0.000000  0.000000  0.000000  0.000000  0.000000
     2 y       0.000034 -0.000082 -0.000044  0.000107  0.000048 -0.000115
     2 z      -0.000087 -0.000017  0.000113  0.000022  0.000122  0.000024
     3 x       0.000000  0.000000  0.000000  0.000000  0.000000  0.000000
     3 y       0.000087  0.000017 -0.000113 -0.000022 -0.000122 -0.000024
     3 z      -0.000034  0.000082  0.000044 -0.000107 -0.000048  0.000115
     4 x       0.000000  0.000000  0.000000  0.000000  0.000000  0.000000
     4 y       0.000008 -0.000125  0.000005 -0.000077 -0.000003  0.000056
     4 z      -0.000121 -0.000033 -0.000074 -0.000020 -0.000054 -0.000014
     5 x       0.000000  0.000000  0.000000  0.000000  0.000000  0.000000
     5 y       0.000000  0.000000  0.000000  0.000000  0.000000  0.000000
     5 z       0.000000  0.000000  0.000000  0.000000  0.000000  0.000000
     6 x       0.000000  0.000000  0.000000  0.000000  0.000000  0.000000
     6 y       0.000000  0.000000  0.000000  0.000000  0.000000  0.000000
     6 z       0.000000  0.000000  0.000000  0.000000  0.000000  0.000000
     7 x       0.000000  0.000000  0.000000  0.000000  0.000000  0.000000
     7 y       0.000000  0.000000  0.000000  0.000000  0.000000  0.000000
     7 z       0.000000  0.000000  0.000000  0.000000  0.000000  0.000000
     8 x       0.000000  0.000000  0.000000  0.000000  0.000000  0.000000
     8 y       0.000000  0.000000  0.000000  0.000000  0.000000  0.000000
     8 z       0.000000  0.000000  0.000000  0.000000  0.000000  0.000000
     9 x       0.000000  0.000000  0.000000  0.000000  0.000000  0.000000
     9 y       0.000000  0.000000  0.000000  0.000000  0.000000  0.000000
     9 z       0.000000  0.000000  0.000000  0.000000  0.000000  0.000000
    10 x       0.000000  0.000000  0.000000  0.000000  0.000000  0.000000
    10 y       0.000000  0.000000  0.000000  0.000000  0.000000  0.000000
    10 z       0.000000  0.000000  0.000000  0.000000  0.000000  0.000000
    11 x       0.000000  0.000000  0.000000  0.000000  0.000000  0.000000
    11 y       0.000000  0.000000  0.000000  0.000000  0.000000  0.000000
    11 z       0.000000  0.000000  0.000000  0.000000  0.000000  0.000000
    12 x       0.000000  0.000000  0.000000  0.000000  0.000000  0.000000
    12 y       0.000000  0.000000  0.000000  0.000000  0.000000  0.000000
    12 z       0.000000  0.000000  0.000000  0.000000  0.000000  0.000000
    13 x       0.000000  0.000000  0.000000  0.000000  0.000000  0.000000
    13 y       0.000000  0.000000  0.000000  0.000000  0.000000  0.000000
    13 z       0.000000  0.000000  0.000000  0.000000  0.000000  0.000000
    14 x       0.000000  0.000000  0.000000  0.000000  0.000000  0.000000
    14 y       0.000000  0.000000  0.000000  0.000000  0.000000  0.000000
    14 z       0.000000  0.000000  0.000000  0.000000  0.000000  0.000000
    15 x       0.000000  0.000000  0.000000  0.000000  0.000000  0.000000
    15 y       0.000000  0.000000  0.000000  0.000000  0.000000  0.000000
    15 z       0.000000  0.000000  0.000000  0.000000  0.000000  0.000000
    16 x       0.000000  0.000000  0.000000  0.000000  0.000000  0.000000
    16 y       0.000000  0.000000  0.000000  0.000000  0.000000  0.000000
    16 z       0.000000  0.000000  0.000000  0.000000  0.000000  0.000000
    17 x       0.000000  0.000000  0.000000  0.000000  0.000000  0.000000
    17 y       0.000000  0.000000  0.000000  0.000000  0.000000  0.000000
    17 z       0.000000  0.000000  0.000000  0.000000  0.000000  0.000000
    18 x       0.000000  0.000000  0.000000  0.000000  0.000000  0.000000
    18 y       0.000000  0.000000  0.000000  0.000000  0.000000  0.000000
    18 z       0.000000  0.000000  0.000000  0.000000  0.000000  0.000000
    19 x       0.000000  0.000000  0.000000  0.000000  0.000000  0.000000
    19 y       0.000000  0.000000  0.000000  0.000000  0.000000  0.000000
    19 z       0.000000  0.000000  0.000000  0.000000  0.000000  0.000000
    20 x       0.000000  0.000000  0.000000  0.000000  0.000000  0.000000
    20 y       0.000000  0.000000  0.000000  0.000000  0.000000  0.000000
    20 z       0.000000  0.000000  0.000000  0.000000  0.000000  0.000000
    21 x       0.000000  0.000000  0.000000  0.000000  0.000000  0.000000
    21 y       0.000000 -0.000080  0.000000 -0.000120  0.000000 -0.000126
    21 z       0.000079 -0.000016  0.000117 -0.000024 -0.000123  0.000025
    22 x       0.000000  0.000000  0.000000  0.000000  0.000000  0.000000
    22 y      -0.000129 -0.000017  0.000068  0.000009 -0.000050 -0.000007
    22 z       0.000009  0.000130 -0.000005 -0.000068 -0.000004 -0.000050
    23 x       0.000000  0.000000  0.000000  0.000000  0.000000  0.000000
    23 y      -0.000009 -0.000130  0.000005  0.000069  0.000004  0.000050
    23 z       0.000129  0.000017 -0.000067 -0.000009  0.000049  0.000007
    24 x       0.000000  0.000000  0.000000  0.000000  0.000000  0.000000
    24 y      -0.000079  0.000016 -0.000117  0.000024  0.000124 -0.000025
    24 z       0.000000  0.000080  0.000000  0.000120  0.000000  0.000126
    25 x       0.000005 -0.000025  0.000007 -0.000034 -0.000005  0.000026
    25 y       0.037230 -0.138936  0.055565 -0.207354  0.058467 -0.218171
    25 z       0.143583  0.008599  0.214287  0.012822 -0.225467 -0.013498
    26 x       0.000033  0.000012 -0.000026 -0.000009 -0.000018 -0.000006
    26 y      -0.200339 -0.082990  0.135451  0.056104 -0.118196 -0.048956
    26 z      -0.041110  0.212968  0.027768 -0.143883  0.024239 -0.125560
    27 x       0.000008 -0.000034 -0.000007  0.000026  0.000005 -0.000018
    27 y       0.041098 -0.212918 -0.027785  0.143954 -0.024253  0.125614
    27 z       0.200388  0.083007 -0.135383 -0.056080  0.118144  0.048939
    28 x       0.000026  0.000003  0.000035  0.000004  0.000027  0.000003
    28 y      -0.143581 -0.008596 -0.214287 -0.012818  0.225466  0.013494
    28 z      -0.037228  0.138939 -0.055561  0.207356 -0.058463  0.218174
    29 x      -0.000019  0.000037 -0.000025  0.000049  0.000019 -0.000039
    29 y       0.029874 -0.051734  0.042898 -0.074304  0.040655 -0.070417
    29 z       0.056746  0.018906  0.081348  0.027100 -0.077107 -0.025690
    30 x      -0.000043 -0.000030  0.000033  0.000023  0.000022  0.000015
    30 y      -0.082489 -0.063296  0.064203  0.049268 -0.067769 -0.052005
    30 z      -0.045444  0.093483  0.035398 -0.072821  0.037362 -0.076855
    31 x      -0.000025  0.000046  0.000019 -0.000035 -0.000013  0.000023
    31 y       0.045459 -0.093511 -0.035378  0.072786 -0.037346  0.076827
    31 z       0.082462  0.063278 -0.064236 -0.049290  0.067795  0.052023
    32 x      -0.000038 -0.000015 -0.000051 -0.000020 -0.000040 -0.000016
    32 y      -0.056679 -0.018879 -0.081399 -0.027118  0.077142  0.025702
    32 z      -0.029907  0.051799 -0.042871  0.074256 -0.040637  0.070385
    33 x       0.000005 -0.000006  0.000007 -0.000008 -0.000006  0.000007
    33 y      -0.102303  0.102299 -0.114179  0.114175 -0.119138  0.119131
    33 z      -0.120772 -0.079718 -0.134744 -0.088928  0.140600  0.092800
    34 x       0.000006  0.000007 -0.000004 -0.000005 -0.000002 -0.000002
    34 y       0.089202  0.116257 -0.078407 -0.102182  0.072949  0.095069
    34 z       0.096004 -0.110730 -0.084357  0.097303 -0.078491  0.090528
    35 x       0.000006 -0.000006 -0.000004  0.000004  0.000002 -0.000002
    35 y      -0.095992  0.110717  0.084370 -0.097316  0.078502 -0.090539
    35 z      -0.089214 -0.116271  0.078395  0.102167 -0.072940 -0.095059
    36 x       0.000006  0.000004  0.000009  0.000007  0.000007  0.000005
    36 y       0.120746  0.079695  0.134767  0.088941 -0.140615 -0.092808
    36 z       0.102324 -0.102327  0.114158 -0.114157  0.119124 -0.119120
    37 x      -0.000007  0.000004 -0.000005  0.000003  0.000002 -0.000001
    37 y      -0.120980  0.069843 -0.124238  0.071728 -0.114180  0.065920
    37 z      -0.092710 -0.104519 -0.095188 -0.107306  0.087479  0.098624
    38 x      -0.000004 -0.000009  0.000006  0.000012  0.000005  0.000010
    38 y       0.060440  0.145920 -0.059989 -0.144831  0.064164  0.154915
    38 z       0.130853 -0.088506 -0.129820  0.087819 -0.138873  0.093935
    39 x      -0.000008  0.000005  0.000011 -0.000007 -0.000009  0.000006
    39 y      -0.130825  0.088489  0.129846 -0.087834  0.138889 -0.093944
    39 z      -0.060454 -0.145950  0.059976  0.144804 -0.064155 -0.154898
    40 x      -0.000005 -0.000006 -0.000004 -0.000005 -0.000001 -0.000002
    40 y       0.092701  0.104503  0.095201  0.107317 -0.087488 -0.098632
    40 z       0.120995 -0.069856  0.124223 -0.071722  0.114168 -0.065915
    41 x       0.000048 -0.000015  0.000042 -0.000013 -0.000027  0.000009
    41 y       0.093658 -0.025095  0.080218 -0.021492  0.082284 -0.022044
    41 z       0.043359  0.086686  0.037171  0.074310 -0.038122 -0.076217
    42 x       0.000008  0.000045 -0.000010 -0.000053 -0.000009 -0.000043
    42 y      -0.007676 -0.058336  0.009304  0.070654 -0.008807 -0.066882
    42 z      -0.055674  0.019251  0.067295 -0.023272  0.063719 -0.022032
    43 x       0.000044 -0.000013 -0.000052  0.000015  0.000042 -0.000011
    43 y       0.055607 -0.019232 -0.067351  0.023288 -0.063757  0.022043
    43 z       0.007688  0.058404 -0.009294 -0.070597  0.008799  0.066844
    44 x       0.000020  0.000046  0.000018  0.000040  0.000011  0.000026
    44 y      -0.043376 -0.086719 -0.037156 -0.074271  0.038110  0.076185
    44 z      -0.093623  0.025086 -0.080257  0.021506 -0.082315  0.022056
    45 x      -0.000033  0.000002 -0.000029  0.000001  0.000020 -0.000001
    45 y       0.207481  0.000007  0.160860  0.000000  0.137693 -0.000001
    45 z       0.041637  0.203318  0.032265  0.157520 -0.027613 -0.134840
    46 x       0.000002 -0.000028 -0.000003  0.000033 -0.000002  0.000026
    46 y       0.020677 -0.157049 -0.027032  0.205306  0.029111 -0.221072
    46 z      -0.158007  0.011254  0.206554 -0.014721  0.222418 -0.015844
    47 x      -0.000028  0.000001  0.000033 -0.000001 -0.000026  0.000000
    47 y       0.158004 -0.011253 -0.206554  0.014721 -0.222417  0.015845
    47 z      -0.020678  0.157052  0.027032 -0.205306 -0.029111  0.221073
    48 x      -0.000005 -0.000032 -0.000004 -0.000029 -0.000003 -0.000020
    48 y      -0.041632 -0.203261 -0.032279 -0.157588  0.027623  0.134894
    48 z      -0.207537  0.000000 -0.160791  0.000000 -0.137638  0.000000


 Frequency      16.2542             16.2544             16.2552
 IR Intensity    0.0000              0.0000              0.0000
    in X         0.0000              0.0000              0.0000
    in Y         0.0000              0.0000              0.0000
    in Z         0.0000              0.0000              0.0000
 Raman Intsty    0.0000              0.0000              0.0000

                Real    Imaginary   Real    Imaginary   Real    Imaginary

     1 x       0.000001  0.000000 -0.000002  0.000000 -0.000002  0.000000
     1 y       0.000131  0.000035  0.000118  0.000032  0.000080  0.000021
     1 z       0.000008 -0.000137 -0.000008  0.000125 -0.000005  0.000079
     2 x       0.000000 -0.000001  0.000000 -0.000001  0.000000  0.000001
     2 y      -0.000029  0.000070  0.000034 -0.000083 -0.000042  0.000101
     2 z      -0.000074 -0.000014 -0.000087 -0.000017  0.000109  0.000021
     3 x       0.000001  0.000000 -0.000001  0.000000  0.000001  0.000000
     3 y       0.000074  0.000014  0.000088  0.000017 -0.000108 -0.000021
     3 z       0.000029 -0.000069 -0.000034  0.000082  0.000042 -0.000102
     4 x       0.000000 -0.000001  0.000000 -0.000002  0.000000 -0.000002
     4 y      -0.000008  0.000135  0.000007 -0.000122  0.000005 -0.000082
     4 z      -0.000133 -0.000036 -0.000121 -0.000032 -0.000077 -0.000021
     5 x       0.000000  0.000000  0.000000  0.000000  0.000000  0.000000
     5 y       0.000000  0.000000  0.000000  0.000000  0.000000  0.000000
     5 z       0.000000  0.000000  0.000000  0.000000  0.000000  0.000000
     6 x       0.000000  0.000000  0.000000  0.000000  0.000000  0.000000
     6 y       0.000000  0.000000  0.000000  0.000000  0.000000  0.000000
     6 z       0.000000  0.000000  0.000000  0.000000  0.000000  0.000000
     7 x       0.000000  0.000000  0.000000  0.000000  0.000000  0.000000
     7 y       0.000000  0.000000  0.000000  0.000000  0.000000  0.000000
     7 z       0.000000  0.000000  0.000000  0.000000  0.000000  0.000000
     8 x       0.000000  0.000000  0.000000  0.000000  0.000000  0.000000
     8 y       0.000000  0.000000  0.000000  0.000000  0.000000  0.000000
     8 z       0.000000  0.000000  0.000000  0.000000  0.000000  0.000000
     9 x       0.000000  0.000000  0.000000  0.000000  0.000000  0.000000
     9 y       0.000000  0.000000  0.000000  0.000000  0.000000  0.000000
     9 z       0.000000  0.000000  0.000000  0.000000  0.000000  0.000000
    10 x       0.000000  0.000000  0.000000  0.000000  0.000000  0.000000
    10 y       0.000000  0.000000  0.000000  0.000000  0.000000  0.000000
    10 z       0.000000  0.000000  0.000000  0.000000  0.000000  0.000000
    11 x       0.000000  0.000000  0.000000  0.000000  0.000000  0.000000
    11 y       0.000000  0.000000  0.000000  0.000000  0.000000  0.000000
    11 z       0.000000  0.000000  0.000000  0.000000  0.000000  0.000000
    12 x       0.000000  0.000000  0.000000  0.000000  0.000000  0.000000
    12 y       0.000000  0.000000  0.000000  0.000000  0.000000  0.000000
    12 z       0.000000  0.000000  0.000000  0.000000  0.000000  0.000000
    13 x       0.000000  0.000000  0.000000  0.000000  0.000000  0.000000
    13 y       0.000000  0.000000  0.000000  0.000000  0.000000  0.000000
    13 z       0.000000  0.000000  0.000000  0.000000  0.000000  0.000000
    14 x       0.000000  0.000000  0.000000  0.000000  0.000000  0.000000
    14 y       0.000000  0.000000  0.000000  0.000000  0.000000  0.000000
    14 z       0.000000  0.000000  0.000000  0.000000  0.000000  0.000000
    15 x       0.000000  0.000000  0.000000  0.000000  0.000000  0.000000
    15 y       0.000000  0.000000  0.000000  0.000000  0.000000  0.000000
    15 z       0.000000  0.000000  0.000000  0.000000  0.000000  0.000000
    16 x       0.000000  0.000000  0.000000  0.000000  0.000000  0.000000
    16 y       0.000000  0.000000  0.000000  0.000000  0.000000  0.000000
    16 z       0.000000  0.000000  0.000000  0.000000  0.000000  0.000000
    17 x       0.000000  0.000000  0.000000  0.000000  0.000000  0.000000
    17 y       0.000000  0.000000  0.000000  0.000000  0.000000  0.000000
    17 z       0.000000  0.000000  0.000000  0.000000  0.000000  0.000000
    18 x       0.000000  0.000000  0.000000  0.000000  0.000000  0.000000
    18 y       0.000000  0.000000  0.000000  0.000000  0.000000  0.000000
    18 z       0.000000  0.000000  0.000000  0.000000  0.000000  0.000000
    19 x       0.000000  0.000000  0.000000  0.000000  0.000000  0.000000
    19 y       0.000000  0.000000  0.000000  0.000000  0.000000  0.000000
    19 z       0.000000  0.000000  0.000000  0.000000  0.000000  0.000000
    20 x       0.000000  0.000000  0.000000  0.000000  0.000000  0.000000
    20 y       0.000000  0.000000  0.000000  0.000000  0.000000  0.000000
    20 z       0.000000  0.000000  0.000000  0.000000  0.000000  0.000000
    21 x       0.000000 -0.000001  0.000000  0.000001  0.000000  0.000001
    21 y       0.000000  0.000069  0.000000  0.000080  0.000000  0.000120
    21 z       0.000067 -0.000014 -0.000077  0.000016 -0.000118  0.000024
    22 x      -0.000002  0.000000 -0.000002  0.000000  0.000002  0.000000
    22 y      -0.000138 -0.000018  0.000129  0.000017 -0.000070 -0.000009
    22 z      -0.000010 -0.000141 -0.000009 -0.000132  0.000005  0.000067
    23 x       0.000000 -0.000002  0.000000  0.000002  0.000000 -0.000002
    23 y       0.000010  0.000139  0.000009  0.000130 -0.000005 -0.000070
    23 z       0.000140  0.000018 -0.000132 -0.000017  0.000066  0.000009
    24 x      -0.000001  0.000000 -0.000001  0.000000 -0.000001  0.000000
    24 y      -0.000068  0.000014  0.000078 -0.000016  0.000117 -0.000024
    24 z       0.000000 -0.000068  0.000000 -0.000079  0.000000 -0.000121
    25 x       0.000002 -0.000008 -0.000003  0.000014 -0.000005  0.000025
    25 y      -0.031879  0.118959 -0.036709  0.136994 -0.055730  0.207976
    25 z       0.122945  0.007348 -0.141585 -0.008469 -0.214921 -0.012843
    26 x      -0.000017 -0.000006 -0.000021 -0.000007  0.000010  0.000004
    26 y      -0.213384 -0.088393  0.202728  0.083980 -0.135716 -0.056216
    26 z       0.043756 -0.226806  0.041580 -0.215493 -0.027813  0.144182
    27 x       0.000005 -0.000018 -0.000005  0.000021  0.000003 -0.000011
    27 y      -0.043751  0.226786 -0.041572  0.215460  0.027827 -0.144238
    27 z       0.213403  0.088399 -0.202760 -0.083992  0.135662  0.056196
    28 x      -0.000008 -0.000001 -0.000014 -0.000002 -0.000026 -0.000003
    28 y      -0.122937 -0.007344  0.141574  0.008465  0.214930  0.012840
    28 z       0.031878 -0.118967  0.036709 -0.137005  0.055724 -0.207968
    29 x      -0.000012  0.000024  0.000019 -0.000037  0.000031 -0.000060
    29 y       0.039158 -0.067828  0.037467 -0.064900  0.047799 -0.082783
    29 z      -0.074265 -0.024735  0.071046  0.023666  0.090724  0.030214
    30 x       0.000042  0.000028  0.000051  0.000035 -0.000030 -0.000021
    30 y       0.064737  0.049680 -0.067748 -0.051990  0.050038  0.038393
    30 z      -0.035684  0.073424 -0.037352  0.076850  0.027532 -0.056655
    31 x      -0.000025  0.000043  0.000030 -0.000055 -0.000018  0.000032
    31 y       0.035667 -0.073395  0.037328 -0.076807 -0.027570  0.056725
    31 z      -0.064765 -0.049698  0.067789  0.052018 -0.049972 -0.038348
    32 x       0.000025  0.000010  0.000038  0.000015  0.000063  0.000025
    32 y       0.074307  0.024750 -0.071097 -0.023685 -0.090695 -0.030201
    32 z      -0.039137  0.067789 -0.037441  0.064853 -0.047812  0.082812
    33 x       0.000009 -0.000010 -0.000014  0.000016 -0.000031  0.000034
    33 y       0.087083 -0.087075  0.092088 -0.092081  0.110536 -0.110535
    33 z      -0.102833 -0.067859  0.108751  0.071771  0.130439  0.086073
    34 x      -0.000020 -0.000023 -0.000024 -0.000028  0.000008  0.000009
    34 y       0.104148  0.135734 -0.101229 -0.131928  0.086593  0.112855
    34 z      -0.112066  0.129282 -0.108928  0.125654  0.093179 -0.107499
    35 x       0.000021 -0.000022 -0.000026  0.000027  0.000009 -0.000009
    35 y       0.112061 -0.129278  0.108924 -0.125650 -0.093170  0.107489
    35 z      -0.104152 -0.135738  0.101232  0.131933 -0.086601 -0.112865
    36 x      -0.000011 -0.000008 -0.000017 -0.000013 -0.000037 -0.000027
    36 y       0.102789  0.067823 -0.108694 -0.071726 -0.130475 -0.086096
    36 z      -0.087119  0.087119 -0.092134  0.092137 -0.110505  0.110506
    37 x       0.000025 -0.000017 -0.000031  0.000020 -0.000016  0.000010
    37 y      -0.138623  0.080030 -0.129167  0.074572 -0.133245  0.076925
    37 z       0.106231  0.119739 -0.098980 -0.111574 -0.102121 -0.115102
    38 x      -0.000007 -0.000015 -0.000012 -0.000025  0.000020  0.000042
    38 y      -0.049784 -0.120207  0.054405  0.131357 -0.052298 -0.126260
    38 z       0.107808 -0.072938  0.117819 -0.079704 -0.113147  0.076553
    39 x       0.000014 -0.000008 -0.000023  0.000014  0.000039 -0.000024
    39 y      -0.107760  0.072910 -0.117760  0.079669  0.113191 -0.076580
    39 z       0.049809  0.120257 -0.054434 -0.131419  0.052276  0.126213
    40 x      -0.000019 -0.000024 -0.000023 -0.000029 -0.000012 -0.000015
    40 y      -0.106231 -0.119733  0.098981  0.111570  0.102112  0.115086
    40 z       0.138624 -0.080036  0.129167 -0.074576  0.133258 -0.076938
    41 x      -0.000046  0.000016  0.000056 -0.000018  0.000041 -0.000013
    41 y      -0.076161  0.020403 -0.077368  0.020727 -0.073219  0.019621
    41 z       0.035296  0.070547 -0.035861 -0.071685 -0.033885 -0.067723
    42 x       0.000006  0.000029  0.000009  0.000047 -0.000011 -0.000062
    42 y      -0.011674 -0.088661  0.011795  0.089580 -0.012645 -0.096079
    42 z       0.084473 -0.029218  0.085343 -0.029516 -0.091618  0.031693
    43 x      -0.000029  0.000008  0.000046 -0.000013 -0.000061  0.000018
    43 y      -0.084514  0.029230 -0.085392  0.029530  0.091583 -0.031683
    43 z       0.011666  0.088619 -0.011786 -0.089530  0.012651  0.096115
    44 x       0.000019  0.000045  0.000024  0.000054  0.000017  0.000040
    44 y      -0.035283 -0.070512  0.035839  0.071630  0.033917  0.067792
    44 z       0.076196 -0.020417  0.077423 -0.020746  0.073147 -0.019599
    45 x       0.000018 -0.000001 -0.000021  0.000001 -0.000013  0.000001
    45 y       0.222095  0.000006  0.203467  0.000006  0.167167  0.000001
    45 z      -0.044585 -0.217597  0.040842  0.199365  0.033547  0.163712
    46 x       0.000001 -0.000009  0.000001 -0.000017 -0.000002  0.000024
    46 y      -0.017585  0.133541  0.020942 -0.159055 -0.025740  0.195490
    46 z      -0.134359  0.009586 -0.160032  0.011410  0.196667 -0.014033
    47 x       0.000009  0.000000 -0.000017  0.000000  0.000024 -0.000001
    47 y       0.134352 -0.009586  0.160022 -0.011410 -0.196678  0.014034
    47 z       0.017586 -0.133548 -0.020943  0.159065  0.025739 -0.195480
    48 x      -0.000002 -0.000018 -0.000003 -0.000020 -0.000002 -0.000013
    48 y       0.044586  0.217573 -0.040841 -0.199326 -0.033558 -0.163764
    48 z      -0.222117  0.000000 -0.203505  0.000000 -0.167114  0.000000


 Frequency      16.2554             16.2587             16.2588
 IR Intensity    0.0000              0.0000              0.0000
    in X         0.0000              0.0000              0.0000
    in Y         0.0000              0.0000              0.0000
    in Z         0.0000              0.0000              0.0000
 Raman Intsty    0.0000              0.0000              0.0000

                Real    Imaginary   Real    Imaginary   Real    Imaginary

     1 x       0.000002  0.000000 -0.000001  0.000000  0.000001  0.000000
     1 y       0.000062  0.000017 -0.000105 -0.000028 -0.000095 -0.000025
     1 z       0.000004 -0.000062 -0.000006  0.000108  0.000006 -0.000097
     2 x       0.000000  0.000001  0.000000  0.000000  0.000000  0.000000
     2 y       0.000045 -0.000108  0.000024 -0.000057 -0.000028  0.000067
     2 z       0.000116  0.000022  0.000060  0.000012  0.000071  0.000014
     3 x      -0.000001  0.000000  0.000000  0.000000  0.000000  0.000000
     3 y      -0.000115 -0.000022 -0.000061 -0.000012 -0.000071 -0.000014
     3 z      -0.000045  0.000109 -0.000024  0.000057  0.000028 -0.000067
     4 x       0.000000 -0.000002  0.000000  0.000001  0.000000  0.000001
     4 y      -0.000004  0.000064  0.000007 -0.000109 -0.000006  0.000098
     4 z      -0.000060 -0.000016  0.000104  0.000028  0.000094  0.000025
     5 x       0.000000  0.000000  0.000000  0.000000  0.000000  0.000000
     5 y       0.000000  0.000000  0.000000  0.000000  0.000000  0.000000
     5 z       0.000000  0.000000  0.000000  0.000000  0.000000  0.000000
     6 x       0.000000  0.000000  0.000000  0.000000  0.000000  0.000000
     6 y       0.000000  0.000000  0.000000  0.000000  0.000000  0.000000
     6 z       0.000000  0.000000  0.000000  0.000000  0.000000  0.000000
     7 x       0.000000  0.000000  0.000000  0.000000  0.000000  0.000000
     7 y       0.000000  0.000000  0.000000  0.000000  0.000000  0.000000
     7 z       0.000000  0.000000  0.000000  0.000000  0.000000  0.000000
     8 x       0.000000  0.000000  0.000000  0.000000  0.000000  0.000000
     8 y       0.000000  0.000000  0.000000  0.000000  0.000000  0.000000
     8 z       0.000000  0.000000  0.000000  0.000000  0.000000  0.000000
     9 x       0.000000  0.000000  0.000000  0.000000  0.000000  0.000000
     9 y       0.000000  0.000000  0.000000  0.000000  0.000000  0.000000
     9 z       0.000000  0.000000  0.000000  0.000000  0.000000  0.000000
    10 x       0.000000  0.000000  0.000000  0.000000  0.000000  0.000000
    10 y       0.000000  0.000000  0.000000  0.000000  0.000000  0.000000
    10 z       0.000000  0.000000  0.000000  0.000000  0.000000  0.000000
    11 x       0.000000  0.000000  0.000000  0.000000  0.000000  0.000000
    11 y       0.000000  0.000000  0.000000  0.000000  0.000000  0.000000
    11 z       0.000000  0.000000  0.000000  0.000000  0.000000  0.000000
    12 x       0.000000  0.000000  0.000000  0.000000  0.000000  0.000000
    12 y       0.000000  0.000000  0.000000  0.000000  0.000000  0.000000
    12 z       0.000000  0.000000  0.000000  0.000000  0.000000  0.000000
    13 x       0.000000  0.000000  0.000000  0.000000  0.000000  0.000000
    13 y       0.000000  0.000000  0.000000  0.000000  0.000000  0.000000
    13 z       0.000000  0.000000  0.000000  0.000000  0.000000  0.000000
    14 x       0.000000  0.000000  0.000000  0.000000  0.000000  0.000000
    14 y       0.000000  0.000000  0.000000  0.000000  0.000000  0.000000
    14 z       0.000000  0.000000  0.000000  0.000000  0.000000  0.000000
    15 x       0.000000  0.000000  0.000000  0.000000  0.000000  0.000000
    15 y       0.000000  0.000000  0.000000  0.000000  0.000000  0.000000
    15 z       0.000000  0.000000  0.000000  0.000000  0.000000  0.000000
    16 x       0.000000  0.000000  0.000000  0.000000  0.000000  0.000000
    16 y       0.000000  0.000000  0.000000  0.000000  0.000000  0.000000
    16 z       0.000000  0.000000  0.000000  0.000000  0.000000  0.000000
    17 x       0.000000  0.000000  0.000000  0.000000  0.000000  0.000000
    17 y       0.000000  0.000000  0.000000  0.000000  0.000000  0.000000
    17 z       0.000000  0.000000  0.000000  0.000000  0.000000  0.000000
    18 x       0.000000  0.000000  0.000000  0.000000  0.000000  0.000000
    18 y       0.000000  0.000000  0.000000  0.000000  0.000000  0.000000
    18 z       0.000000  0.000000  0.000000  0.000000  0.000000  0.000000
    19 x       0.000000  0.000000  0.000000  0.000000  0.000000  0.000000
    19 y       0.000000  0.000000  0.000000  0.000000  0.000000  0.000000
    19 z       0.000000  0.000000  0.000000  0.000000  0.000000  0.000000
    20 x       0.000000  0.000000  0.000000  0.000000  0.000000  0.000000
    20 y       0.000000  0.000000  0.000000  0.000000  0.000000  0.000000
    20 z       0.000000  0.000000  0.000000  0.000000  0.000000  0.000000
    21 x       0.000000 -0.000001  0.000000  0.000000  0.000000  0.000000
    21 y       0.000000  0.000124  0.000000  0.000056  0.000000  0.000062
    21 z       0.000122 -0.000025  0.000054 -0.000011 -0.000061  0.000012
    22 x       0.000001  0.000000 -0.000001  0.000000 -0.000001  0.000000
    22 y       0.000055  0.000007 -0.000112 -0.000015  0.000106  0.000014
    22 z       0.000004  0.000053 -0.000008 -0.000112 -0.000008 -0.000106
    23 x       0.000000  0.000002  0.000000 -0.000001  0.000000  0.000001
    23 y      -0.000004 -0.000056  0.000008  0.000113  0.000008  0.000106
    23 z      -0.000053 -0.000007  0.000112  0.000015 -0.000105 -0.000014
    24 x      -0.000001  0.000000  0.000000  0.000000  0.000000  0.000000
    24 y      -0.000121  0.000025 -0.000055  0.000011  0.000061 -0.000013
    24 z       0.000000 -0.000124  0.000000 -0.000055  0.000000 -0.000062
    25 x       0.000004 -0.000020  0.000003 -0.000016 -0.000005  0.000022
    25 y      -0.057551  0.214753 -0.025776  0.096181 -0.028886  0.107801
    25 z       0.221927  0.013272  0.099402  0.005932 -0.111409 -0.006661
    26 x       0.000007  0.000002 -0.000018 -0.000006 -0.000024 -0.000009
    26 y       0.124807  0.051696 -0.171513 -0.071053  0.164491  0.068146
    26 z      -0.025588  0.132598  0.035158 -0.182321  0.033731 -0.174868
    27 x      -0.000002  0.000007  0.000005 -0.000018 -0.000006  0.000025
    27 y       0.025599 -0.132642 -0.035150  0.182291 -0.033721  0.174826
    27 z      -0.124764 -0.051681  0.171543  0.071063 -0.164532 -0.068160
    28 x      -0.000021 -0.000003 -0.000016 -0.000002 -0.000022 -0.000002
    28 y      -0.221935 -0.013268 -0.099398 -0.005930  0.111405  0.006658
    28 z       0.057545 -0.214748  0.025775 -0.096185  0.028885 -0.107805
    29 x      -0.000024  0.000049 -0.000023  0.000047  0.000032 -0.000064
    29 y       0.050802 -0.087981  0.074830 -0.129605  0.077171 -0.133667
    29 z      -0.096408 -0.032112 -0.141954 -0.047265  0.146384  0.048756
    30 x      -0.000020 -0.000013  0.000055  0.000036  0.000073  0.000050
    30 y      -0.043836 -0.033633  0.168546  0.129345 -0.166325 -0.127642
    30 z       0.024125 -0.049636 -0.092883  0.191160 -0.091684  0.188660
    31 x       0.000012 -0.000020 -0.000033  0.000057  0.000043 -0.000078
    31 y      -0.024157  0.049691  0.092847 -0.191096  0.091636 -0.188572
    31 z       0.043783  0.033598 -0.168608 -0.129386  0.166407  0.127699
    32 x       0.000050  0.000021  0.000048  0.000020  0.000067  0.000026
    32 y       0.096390  0.032102  0.141992  0.047278 -0.146435 -0.048773
    32 z      -0.050810  0.088001 -0.074810  0.129570 -0.077144  0.133620
    33 x       0.000026 -0.000030  0.000057 -0.000065 -0.000077  0.000085
    33 y       0.107660 -0.107656 -0.058570  0.058574 -0.054934  0.054939
    33 z      -0.127051 -0.083847  0.069065  0.045566 -0.064743 -0.042722
    34 x       0.000003  0.000003 -0.000066 -0.000075 -0.000088 -0.000103
    34 y      -0.089372 -0.116480 -0.047524 -0.061947  0.050390  0.065682
    34 z       0.096179 -0.110946  0.051201 -0.059075  0.054309 -0.062652
    35 x      -0.000003  0.000003  0.000070 -0.000070 -0.000094  0.000098
    35 y      -0.096168  0.110935 -0.051131  0.059005 -0.054219  0.062558
    35 z       0.089382  0.116491  0.047589  0.062022 -0.050474 -0.065781
    36 x      -0.000031 -0.000024 -0.000069 -0.000052 -0.000092 -0.000068
    36 y       0.127074  0.083861 -0.069138 -0.045620  0.064843  0.042794
    36 z      -0.107640  0.107638  0.058509 -0.058506  0.054850 -0.054848
    37 x       0.000007 -0.000005 -0.000076  0.000051  0.000100 -0.000065
    37 y      -0.132216  0.076329 -0.063832  0.036846 -0.064934  0.037483
    37 z       0.101326  0.114219  0.048988  0.055211 -0.049855 -0.056198
    38 x       0.000018  0.000036  0.000042  0.000084  0.000056  0.000118
    38 y       0.052519  0.126796 -0.035752 -0.086314  0.035600  0.085946
    38 z      -0.113648  0.076882  0.077304 -0.052313  0.076958 -0.052070
    39 x      -0.000035  0.000020 -0.000081  0.000047  0.000112 -0.000068
    39 y       0.113676 -0.076899 -0.077377  0.052355 -0.077051  0.052126
    39 z      -0.052505 -0.126767  0.035715  0.086238 -0.035554 -0.085848
    40 x      -0.000005 -0.000006  0.000056  0.000072  0.000074  0.000093
    40 y      -0.101317 -0.114202 -0.048923 -0.055125  0.049763  0.056081
    40 z       0.132230 -0.076342  0.063921 -0.036907  0.065058 -0.037565
    41 x      -0.000026  0.000009  0.000057 -0.000020 -0.000074  0.000024
    41 y      -0.063230  0.016945  0.192389 -0.051542  0.181118 -0.048523
[...]
    15 x      -0.052128 -0.084063 -0.053170 -0.085236 -0.079512 -0.130324
    15 y      -0.056852 -0.091542  0.056334  0.090216 -0.075567 -0.123257
    15 z      -0.099589  0.041144 -0.098288  0.040632  0.133680 -0.055063
    16 x       0.027115 -0.022230 -0.026711  0.022009  0.117879 -0.095493
    16 y       0.030265 -0.024776  0.030675 -0.025248  0.127219 -0.102616
    16 z       0.019553  0.033885 -0.019860 -0.034417 -0.081748 -0.141535
    17 x       0.038748  0.145138  0.038277  0.143250 -0.032662 -0.122890
    17 y      -0.036860 -0.137727  0.037439  0.139887  0.035101  0.130894
    17 z      -0.129940  0.058684 -0.131818  0.059956 -0.123913  0.054874
    18 x      -0.144972  0.019040  0.147245 -0.019339  0.107779 -0.014216
    18 y       0.166808 -0.021812  0.164643 -0.021566 -0.103578  0.013423
    18 z       0.048735  0.161015 -0.048493 -0.158812  0.029689  0.100133
    19 x       0.042279  0.139971  0.043321  0.142051  0.030666  0.104298
    19 y       0.048735  0.161014 -0.048493 -0.158811  0.029690  0.100136
    19 z       0.166809 -0.021812  0.164644 -0.021566 -0.103576  0.013422
    20 x      -0.136867  0.061918  0.134944 -0.061447 -0.116150  0.051748
    20 y      -0.129936  0.058686 -0.131814  0.059957 -0.123911  0.054876
    20 z      -0.036864 -0.137730  0.037443  0.139888  0.035104  0.130895
    21 x       0.000120 -0.139024  0.000088 -0.137222 -0.000154  0.074303
    21 y      -0.000044  0.126045  0.000044 -0.128021 -0.000020 -0.077366
    21 z       0.124380 -0.020387  0.126276 -0.021043  0.076441 -0.011947
    22 x       0.069815  0.009220 -0.070916 -0.009365 -0.040108 -0.005267
    22 y      -0.086304 -0.011437 -0.085194 -0.011270  0.040669  0.005440
    22 z      -0.002793 -0.087022  0.002967  0.085891 -0.001086 -0.041014
    23 x      -0.002227 -0.070386 -0.002453 -0.071489 -0.000975 -0.040441
    23 y      -0.002793 -0.087014  0.002967  0.085885 -0.001086 -0.041017
    23 z      -0.086312 -0.011438 -0.085199 -0.011271  0.040666  0.005439
    24 x       0.137181 -0.022560 -0.135349  0.022599  0.073384 -0.011646
    24 y       0.124384 -0.020390  0.126279 -0.021046  0.076438 -0.011948
    24 z      -0.000042  0.126040  0.000042 -0.128017 -0.000021 -0.077369
    25 x      -0.004195  0.015604 -0.004137  0.015403  0.001909 -0.007063
    25 y       0.002003 -0.007463 -0.002034  0.007580 -0.001105  0.004131
    25 z      -0.007687 -0.000766 -0.007810 -0.000757 -0.004253 -0.000456
    26 x      -0.000575 -0.000239  0.000584  0.000242  0.000304  0.000126
    26 y       0.001079  0.000448  0.001066  0.000442 -0.000473 -0.000197
    26 z      -0.000266  0.001138  0.000260 -0.001124 -0.000119  0.000498
    27 x      -0.000142  0.000606 -0.000142  0.000616 -0.000077  0.000320
    27 y      -0.000266  0.001138  0.000260 -0.001124 -0.000119  0.000498
    27 z       0.001080  0.000448  0.001066  0.000442 -0.000473 -0.000197
    28 x      -0.016079 -0.001595  0.015875  0.001535 -0.007276 -0.000762
    28 y      -0.007689 -0.000766 -0.007812 -0.000757 -0.004252 -0.000456
    28 z       0.002002 -0.007461 -0.002034  0.007578 -0.001106  0.004132
    29 x       0.000056 -0.000097  0.000055 -0.000096 -0.000024  0.000041
    29 y      -0.000027  0.000047  0.000028 -0.000048  0.000014 -0.000024
    29 z       0.000051  0.000019  0.000051  0.000019  0.000026  0.000010
    30 x       0.000004  0.000003 -0.000004 -0.000003 -0.000002 -0.000002
    30 y      -0.000007 -0.000006 -0.000007 -0.000006  0.000003  0.000002
    30 z       0.000004 -0.000008 -0.000004  0.000008  0.000002 -0.000003
    31 x       0.000003 -0.000005  0.000003 -0.000005  0.000001 -0.000002
    31 y       0.000004 -0.000008 -0.000004  0.000008  0.000002 -0.000003
    31 z      -0.000007 -0.000006 -0.000007 -0.000006  0.000003  0.000002
    32 x       0.000105  0.000040 -0.000104 -0.000039  0.000044  0.000017
    32 y       0.000051  0.000019  0.000052  0.000019  0.000026  0.000010
    32 z      -0.000027  0.000047  0.000028 -0.000048  0.000014 -0.000024
    33 x      -0.000001  0.000001 -0.000001  0.000001  0.000000  0.000000
    33 y       0.000000  0.000000  0.000000  0.000000  0.000000  0.000000
    33 z       0.000000  0.000000  0.000000  0.000000  0.000000  0.000000
    34 x       0.000000  0.000000  0.000000  0.000000  0.000000  0.000000
    34 y       0.000000  0.000000  0.000000  0.000000  0.000000  0.000000
    34 z       0.000000  0.000000  0.000000  0.000000  0.000000  0.000000
    35 x       0.000000  0.000000  0.000000  0.000000  0.000000  0.000000
    35 y       0.000000  0.000000  0.000000  0.000000  0.000000  0.000000
    35 z       0.000000  0.000000  0.000000  0.000000  0.000000  0.000000
    36 x      -0.000001 -0.000001  0.000001  0.000001  0.000000  0.000000
    36 y       0.000000  0.000000  0.000000  0.000000  0.000000  0.000000
    36 z       0.000000  0.000000  0.000000  0.000000  0.000000  0.000000
    37 x       0.000000  0.000000  0.000000  0.000000  0.000000  0.000000
    37 y       0.000000  0.000000  0.000000  0.000000  0.000000  0.000000
    37 z       0.000000  0.000000  0.000000  0.000000  0.000000  0.000000
    38 x       0.000000  0.000001  0.000000 -0.000001  0.000000  0.000000
    38 y       0.000000  0.000000  0.000000  0.000000  0.000000  0.000000
    38 z       0.000000  0.000000  0.000000  0.000000  0.000000  0.000000
    39 x       0.000001  0.000000  0.000001  0.000000  0.000000  0.000000
    39 y       0.000000  0.000000  0.000000  0.000000  0.000000  0.000000
    39 z       0.000000  0.000000  0.000000  0.000000  0.000000  0.000000
    40 x       0.000000  0.000000  0.000000  0.000000  0.000000  0.000000
    40 y       0.000000  0.000000  0.000000  0.000000  0.000000  0.000000
    40 z       0.000000  0.000000  0.000000  0.000000  0.000000  0.000000
    41 x      -0.000006  0.000002 -0.000006  0.000002 -0.000003  0.000001
    41 y       0.000008 -0.000002 -0.000008  0.000002  0.000004 -0.000001
    41 z      -0.000003 -0.000008 -0.000003 -0.000008  0.000002  0.000004
    42 x      -0.000013 -0.000101  0.000013  0.000102 -0.000007 -0.000050
    42 y       0.000008  0.000059  0.000008  0.000059  0.000003  0.000026
    42 z      -0.000057  0.000017  0.000057 -0.000017  0.000025 -0.000007
    43 x      -0.000097  0.000029 -0.000098  0.000030  0.000049 -0.000014
    43 y      -0.000057  0.000017  0.000057 -0.000017  0.000025 -0.000007
    43 z       0.000008  0.000059  0.000008  0.000059  0.000003  0.000026
    44 x      -0.000003 -0.000006  0.000003  0.000006  0.000001  0.000002
    44 y      -0.000003 -0.000008 -0.000003 -0.000008  0.000002  0.000004
    44 z       0.000008 -0.000002 -0.000008  0.000002  0.000004 -0.000001
    45 x       0.000689  0.000001  0.000680  0.000001  0.000307  0.000000
    45 y      -0.001056  0.000000  0.001072  0.000000 -0.000549  0.000000
    45 z       0.000170  0.001042  0.000176  0.001058 -0.000085 -0.000542
    46 x      -0.001905  0.014470  0.001935 -0.014696 -0.001023  0.007773
    46 y       0.001126 -0.008481  0.001110 -0.008371  0.000528 -0.003955
    46 z       0.008549 -0.000277 -0.008437  0.000294 -0.003990  0.000104
    47 x       0.014588 -0.000456  0.014815 -0.000503 -0.007838  0.000192
    47 y       0.008551 -0.000277 -0.008439  0.000294 -0.003989  0.000104
    47 z       0.001126 -0.008479  0.001110 -0.008369  0.000528 -0.003956
    48 x       0.000112  0.000680 -0.000112 -0.000671 -0.000048 -0.000303
    48 y       0.000170  0.001042  0.000176  0.001058 -0.000085 -0.000542
    48 z      -0.001056  0.000000  0.001072  0.000000 -0.000549  0.000000


 Frequency      60.8377             60.8377             60.8377
 IR Intensity    0.0000              0.0000              0.0000
    in X         0.0000              0.0000              0.0000
    in Y         0.0000              0.0000              0.0000
    in Z         0.0000              0.0000              0.0000
 Raman Intsty    0.0000              0.0000              0.0000

                Real    Imaginary   Real    Imaginary   Real    Imaginary

     1 x       0.035921  0.009722 -0.039450 -0.010707 -0.038983 -0.010548
     1 y       0.042999  0.011520  0.039135  0.010489 -0.039702 -0.010641
     1 z       0.004340 -0.044299  0.004364 -0.040285  0.004001 -0.040911
     2 x       0.030845 -0.074475  0.028076 -0.067770 -0.028481  0.068747
     2 y       0.027404 -0.065680 -0.030157  0.072160 -0.029736  0.071309
     2 z       0.069363  0.015944 -0.076042 -0.018263  0.075292  0.017316
     3 x      -0.078514 -0.018264 -0.071274 -0.017352 -0.072481 -0.016846
     3 y       0.069359  0.015943 -0.076045 -0.018264  0.075295  0.017316
     3 z       0.027406 -0.065683 -0.030155  0.072156 -0.029735  0.071306
     4 x      -0.003533  0.037046  0.004274 -0.040653 -0.003834  0.040202
     4 y       0.004340 -0.044304  0.004363 -0.040281  0.003999 -0.040908
     4 z       0.042995  0.011519  0.039140  0.010490 -0.039705 -0.010641
     5 x      -0.086474 -0.050228  0.095024  0.055262  0.093918  0.054521
     5 y      -0.098134 -0.056650 -0.089261 -0.051548  0.090549  0.052293
     5 z      -0.039862  0.106065 -0.037244  0.096116 -0.036761  0.097892
     6 x      -0.083967  0.109449 -0.076382  0.099518  0.077485 -0.100953
     6 y      -0.076147  0.098695  0.083783 -0.108488  0.082685 -0.107239
     6 z      -0.110127 -0.058411  0.120451  0.065421 -0.119612 -0.063478
     7 x       0.121689  0.064971  0.110061  0.060204  0.112281  0.059904
     7 y      -0.110125 -0.058410  0.120453  0.065422 -0.119614 -0.063479
     7 z      -0.076149  0.098697  0.083781 -0.108486  0.082684 -0.107238
     8 x       0.034929 -0.093705 -0.039403  0.102620  0.037946 -0.101750
     8 y      -0.039861  0.106069 -0.037240  0.096114 -0.036758  0.097891
     8 z      -0.098133 -0.056646 -0.089265 -0.051548  0.090553  0.052292
     9 x       0.099030  0.099563 -0.108882 -0.109558 -0.107650 -0.108149
     9 y       0.110919  0.110895  0.100808  0.100842 -0.102264 -0.102299
     9 z       0.091304 -0.127530  0.084169 -0.115098  0.084161 -0.117645
    10 x       0.130551 -0.100205  0.118676 -0.091028 -0.120391  0.092343
    10 y       0.119519 -0.091197 -0.131544  0.100299 -0.129875  0.099188
    10 z       0.110062  0.102412 -0.119970 -0.113890  0.119599  0.111363
    11 x      -0.120163 -0.112451 -0.108176 -0.103287 -0.110827 -0.103627
    11 y       0.110062  0.102412 -0.119970 -0.113890  0.119599  0.111363
    11 z       0.119520 -0.091198 -0.131544  0.100299 -0.129874  0.099188
    12 x      -0.081425  0.114410  0.090809 -0.124948 -0.088515  0.124297
    12 y       0.091302 -0.127533  0.084166 -0.115098  0.084158 -0.117646
    12 z       0.110920  0.110891  0.100811  0.100841 -0.102267 -0.102298
    13 x      -0.074415 -0.129712  0.081864  0.142795  0.080985  0.141003
    13 y      -0.082746 -0.143268 -0.075126 -0.130190  0.076211  0.132073
    13 z      -0.127853  0.105007 -0.117100  0.094238 -0.117788  0.096836
    14 x      -0.142759  0.059166 -0.129679  0.053677  0.131556 -0.054453
    14 y      -0.131819  0.054174  0.145149 -0.059611  0.143347 -0.059004
    14 z      -0.075660 -0.120773  0.081956  0.133811 -0.082236 -0.131405
    15 x       0.081652  0.131201  0.072973  0.119887  0.075296  0.120842
    15 y      -0.075661 -0.120774  0.081956  0.133810 -0.082236 -0.131405
    15 z      -0.131817  0.054173  0.145150 -0.059612  0.143348 -0.059004
    16 x       0.115283 -0.095250 -0.127937  0.103558  0.125396 -0.103520
    16 y      -0.127850  0.105009 -0.117099  0.094241 -0.117787  0.096838
    16 z      -0.082749 -0.143267 -0.075129 -0.130188  0.076214  0.132071
    17 x       0.032100  0.121161 -0.035331 -0.133453 -0.035008 -0.131811
    17 y       0.035532  0.132494  0.032201  0.120313 -0.032666 -0.122054
    17 z       0.124932 -0.056655  0.113928 -0.050317  0.115037 -0.052250
    18 x       0.109099 -0.014391  0.099026 -0.013005 -0.100462  0.013193
    18 y       0.102112 -0.013150 -0.112500  0.014472 -0.111129  0.014385
    18 z       0.030219  0.098417 -0.032185 -0.108768  0.032831  0.107141
    19 x      -0.031976 -0.105296 -0.028086 -0.095847 -0.029507 -0.096933
    19 y       0.030220  0.098420 -0.032184 -0.108765  0.032830  0.107139
    19 z       0.102108 -0.013149 -0.112503  0.014472 -0.111131  0.014385
    20 x      -0.113994  0.052114  0.126130 -0.056119 -0.124063  0.056639
    20 y       0.124929 -0.056657  0.113929 -0.050321  0.115038 -0.052253
    20 z       0.035535  0.132496  0.032203  0.120309 -0.032668 -0.122051
    21 x       0.000211 -0.073241 -0.000238  0.080720 -0.000171  0.079744
    21 y      -0.000021 -0.078312  0.000024 -0.071058 -0.000026  0.072087
    21 z      -0.077266  0.012779 -0.070212  0.010910 -0.071110  0.011812
    22 x      -0.040601 -0.005332 -0.036821 -0.004862  0.037357  0.004934
    22 y      -0.040086 -0.005394  0.044187  0.005949  0.043660  0.005843
    22 z      -0.001462 -0.040416  0.001153  0.044575 -0.001564 -0.044024
    23 x       0.001349  0.040927  0.000866  0.037130  0.001273  0.037660
    23 y      -0.001462 -0.040421  0.001153  0.044571 -0.001564 -0.044021
    23 z      -0.040082 -0.005394  0.044191  0.005950  0.043663  0.005843
    24 x       0.072221 -0.012179 -0.079731  0.012603  0.078642 -0.013210
    24 y      -0.077262  0.012780 -0.070215  0.010912 -0.071113  0.011814
    24 z      -0.000022 -0.078316  0.000023 -0.071054 -0.000024  0.072084
    25 x      -0.001887  0.006960  0.002081 -0.007676  0.002049 -0.007585
    25 y      -0.001119  0.004181 -0.001018  0.003791  0.001032 -0.003846
    25 z       0.004309  0.000423  0.003902  0.000421  0.003963  0.000386
    26 x       0.000308  0.000127  0.000278  0.000116 -0.000283 -0.000117
    26 y       0.000466  0.000195 -0.000514 -0.000215 -0.000508 -0.000212
    26 z      -0.000113  0.000492  0.000130 -0.000542 -0.000123  0.000536
    27 x       0.000076 -0.000324  0.000071 -0.000293  0.000069 -0.000298
    27 y      -0.000113  0.000492  0.000130 -0.000542 -0.000123  0.000536
    27 z       0.000466  0.000195 -0.000514 -0.000215 -0.000508 -0.000212
    28 x      -0.007179 -0.000682  0.007909  0.000834 -0.007821 -0.000749
    28 y       0.004308  0.000423  0.003903  0.000421  0.003964  0.000386
    28 z      -0.001119  0.004182 -0.001017  0.003790  0.001032 -0.003845
    29 x       0.000024 -0.000040 -0.000026  0.000045 -0.000026  0.000044
    29 y       0.000014 -0.000025  0.000013 -0.000022 -0.000013  0.000023
    29 z      -0.000027 -0.000010 -0.000024 -0.000009 -0.000024 -0.000009
    30 x      -0.000002 -0.000002 -0.000002 -0.000002  0.000002  0.000002
    30 y      -0.000003 -0.000002  0.000003  0.000003  0.000003  0.000002
    30 z       0.000002 -0.000003 -0.000002  0.000004  0.000002 -0.000004
    31 x      -0.000001  0.000002 -0.000001  0.000002 -0.000001  0.000002
    31 y       0.000002 -0.000003 -0.000002  0.000004  0.000002 -0.000004
    31 z      -0.000003 -0.000002  0.000003  0.000003  0.000003  0.000002
    32 x       0.000044  0.000016 -0.000048 -0.000019  0.000048  0.000018
    32 y      -0.000027 -0.000010 -0.000024 -0.000009 -0.000024 -0.000009
    32 z       0.000014 -0.000025  0.000013 -0.000022 -0.000013  0.000023
    33 x       0.000000  0.000000  0.000000  0.000000  0.000000  0.000000
    33 y       0.000000  0.000000  0.000000  0.000000  0.000000  0.000000
    33 z       0.000000  0.000000  0.000000  0.000000  0.000000  0.000000
    34 x       0.000000  0.000000  0.000000  0.000000  0.000000  0.000000
    34 y       0.000000  0.000000  0.000000  0.000000  0.000000  0.000000
    34 z       0.000000  0.000000  0.000000  0.000000  0.000000  0.000000
    35 x       0.000000  0.000000  0.000000  0.000000  0.000000  0.000000
    35 y       0.000000  0.000000  0.000000  0.000000  0.000000  0.000000
    35 z       0.000000  0.000000  0.000000  0.000000  0.000000  0.000000
    36 x       0.000000  0.000000  0.000000  0.000000  0.000000  0.000000
    36 y       0.000000  0.000000  0.000000  0.000000  0.000000  0.000000
    36 z       0.000000  0.000000  0.000000  0.000000  0.000000  0.000000
    37 x       0.000000  0.000000  0.000000  0.000000  0.000000  0.000000
    37 y       0.000000  0.000000  0.000000  0.000000  0.000000  0.000000
    37 z       0.000000  0.000000  0.000000  0.000000  0.000000  0.000000
    38 x       0.000000  0.000000  0.000000  0.000000  0.000000  0.000000
    38 y       0.000000  0.000000  0.000000  0.000000  0.000000  0.000000
    38 z       0.000000  0.000000  0.000000  0.000000  0.000000  0.000000
    39 x       0.000000  0.000000  0.000000  0.000000  0.000000  0.000000
    39 y       0.000000  0.000000  0.000000  0.000000  0.000000  0.000000
    39 z       0.000000  0.000000  0.000000  0.000000  0.000000  0.000000
    40 x       0.000000  0.000000  0.000000  0.000000  0.000000  0.000000
    40 y       0.000000  0.000000  0.000000  0.000000  0.000000  0.000000
    40 z       0.000000  0.000000  0.000000  0.000000  0.000000  0.000000
    41 x       0.000002 -0.000001 -0.000003  0.000001 -0.000003  0.000001
    41 y       0.000004 -0.000001  0.000004 -0.000001 -0.000004  0.000001
    41 z      -0.000002 -0.000004 -0.000002 -0.000003 -0.000002 -0.000003
    42 x      -0.000007 -0.000051 -0.000006 -0.000047  0.000006  0.000047
    42 y      -0.000003 -0.000026  0.000004  0.000028  0.000004  0.000028
    42 z       0.000025 -0.000008 -0.000027  0.000008  0.000027 -0.000008
    43 x      -0.000049  0.000015 -0.000045  0.000013 -0.000046  0.000014
    43 y       0.000025 -0.000008 -0.000027  0.000008  0.000027 -0.000008
    43 z      -0.000003 -0.000026  0.000004  0.000028  0.000004  0.000028
    44 x       0.000001  0.000002 -0.000001 -0.000003  0.000001  0.000003
    44 y      -0.000002 -0.000004 -0.000002 -0.000003 -0.000002 -0.000003
    44 z       0.000004 -0.000001  0.000004 -0.000001 -0.000004  0.000001
    45 x      -0.000303 -0.000001  0.000332  0.000001  0.000328  0.000001
    45 y      -0.000556  0.000000 -0.000506  0.000000  0.000513  0.000000
    45 z       0.000091  0.000548  0.000078  0.000500  0.000084  0.000507
    46 x      -0.001036  0.007868 -0.000943  0.007165  0.000957 -0.007268
    46 y      -0.000523  0.003898  0.000578 -0.004282  0.000567 -0.004230
    46 z      -0.003932  0.000141  0.004318 -0.000113 -0.004264  0.000153
    47 x       0.007932 -0.000264  0.007225 -0.000166  0.007327 -0.000245
    47 y      -0.003931  0.000141  0.004319 -0.000113 -0.004265  0.000153
    47 z      -0.000523  0.003899  0.000577 -0.004280  0.000567 -0.004229
    48 x      -0.000050 -0.000298  0.000052  0.000328 -0.000054 -0.000323
    48 y       0.000091  0.000548  0.000078  0.000500  0.000084  0.000507
    48 z      -0.000556  0.000000 -0.000506  0.000000  0.000513  0.000000




--------------------------------------------------------------------------------
  Phonon properties (per mole of unit cells): Temperature =      0.000 K
--------------------------------------------------------------------------------
  Zero point energy            =        0.282869 eV
--------------------------------------------------------------------------------

  Time to end of properties =       0.0940 seconds


  Peak dynamic memory used =       0.94 MB 


  Timing analysis for GULP :

--------------------------------------------------------------------------------
  Task / Subroutine                                          Time (Seconds)
--------------------------------------------------------------------------------
  Calculation of real space energy and derivatives                0.0100
  Calculation of phonons                                          0.0790
  Calculation of scattering                                       0.0000
--------------------------------------------------------------------------------
  Total CPU time                                                  0.0940
--------------------------------------------------------------------------------


  Job Finished at 18:27.45 22nd July       2012                               

