	
1152 atoms
2 atom types	

0.0 12.5058 xlo xhi
0.0 9.3794 ylo yhi
0.0 9.3794 zlo zhi

#-15.16 0.0 0.0 xy xz yz

Masses

1 1
2 3

Atoms				

1	1	0	0	0
2	1	0.78161	0.78161	0
3	1	0.78161	0	0.78161
4	1	0	0.78161	0.78161
5	2	1.5632	0	0
6	2	2.3448	0.78161	0
7	2	2.3448	0	0.78161
8	2	1.5632	0.78161	0.78161
9	1	0	0	1.5632
10	1	0.78161	0.78161	1.5632
11	1	0.78161	0	2.3448
12	1	0	0.78161	2.3448
13	2	1.5632	0	1.5632
14	2	2.3448	0.78161	1.5632
15	2	2.3448	0	2.3448
16	2	1.5632	0.78161	2.3448
17	1	0	0	3.1265
18	1	0.78161	0.78161	3.1265
19	1	0.78161	0	3.9081
20	1	0	0.78161	3.9081
21	2	1.5632	0	3.1265
22	2	2.3448	0.78161	3.1265
23	2	2.3448	0	3.9081
24	2	1.5632	0.78161	3.9081
25	1	0	0	4.6897
26	1	0.78161	0.78161	4.6897
27	1	0.78161	0	5.4713
28	1	0	0.78161	5.4713
29	2	1.5632	0	4.6897
30	2	2.3448	0.78161	4.6897
31	2	2.3448	0	5.4713
32	2	1.5632	0.78161	5.4713
33	1	0	0	6.2529
34	1	0.78161	0.78161	6.2529
35	1	0.78161	0	7.0345
36	1	0	0.78161	7.0345
37	2	1.5632	0	6.2529
38	2	2.3448	0.78161	6.2529
39	2	2.3448	0	7.0345
40	2	1.5632	0.78161	7.0345
41	1	0	0	7.8161
42	1	0.78161	0.78161	7.8161
43	1	0.78161	0	8.5977
44	1	0	0.78161	8.5977
45	2	1.5632	0	7.8161
46	2	2.3448	0.78161	7.8161
47	2	2.3448	0	8.5977
48	2	1.5632	0.78161	8.5977
49	1	0	1.5632	0
50	1	0.78161	2.3448	0
51	1	0.78161	1.5632	0.78161
52	1	0	2.3448	0.78161
53	2	1.5632	1.5632	0
54	2	2.3448	2.3448	0
55	2	2.3448	1.5632	0.78161
56	2	1.5632	2.3448	0.78161
57	1	0	1.5632	1.5632
58	1	0.78161	2.3448	1.5632
59	1	0.78161	1.5632	2.3448
60	1	0	2.3448	2.3448
61	2	1.5632	1.5632	1.5632
62	2	2.3448	2.3448	1.5632
63	2	2.3448	1.5632	2.3448
64	2	1.5632	2.3448	2.3448
65	1	0	1.5632	3.1265
66	1	0.78161	2.3448	3.1265
67	1	0.78161	1.5632	3.9081
68	1	0	2.3448	3.9081
69	2	1.5632	1.5632	3.1265
70	2	2.3448	2.3448	3.1265
71	2	2.3448	1.5632	3.9081
72	2	1.5632	2.3448	3.9081
73	1	0	1.5632	4.6897
74	1	0.78161	2.3448	4.6897
75	1	0.78161	1.5632	5.4713
76	1	0	2.3448	5.4713
77	2	1.5632	1.5632	4.6897
78	2	2.3448	2.3448	4.6897
79	2	2.3448	1.5632	5.4713
80	2	1.5632	2.3448	5.4713
81	1	0	1.5632	6.2529
82	1	0.78161	2.3448	6.2529
83	1	0.78161	1.5632	7.0345
84	1	0	2.3448	7.0345
85	2	1.5632	1.5632	6.2529
86	2	2.3448	2.3448	6.2529
87	2	2.3448	1.5632	7.0345
88	2	1.5632	2.3448	7.0345
89	1	0	1.5632	7.8161
90	1	0.78161	2.3448	7.8161
91	1	0.78161	1.5632	8.5977
92	1	0	2.3448	8.5977
93	2	1.5632	1.5632	7.8161
94	2	2.3448	2.3448	7.8161
95	2	2.3448	1.5632	8.5977
96	2	1.5632	2.3448	8.5977
97	1	0	3.1265	0
98	1	0.78161	3.9081	0
99	1	0.78161	3.1265	0.78161
100	1	0	3.9081	0.78161
101	2	1.5632	3.1265	0
102	2	2.3448	3.9081	0
103	2	2.3448	3.1265	0.78161
104	2	1.5632	3.9081	0.78161
105	1	0	3.1265	1.5632
106	1	0.78161	3.9081	1.5632
107	1	0.78161	3.1265	2.3448
108	1	0	3.9081	2.3448
109	2	1.5632	3.1265	1.5632
110	2	2.3448	3.9081	1.5632
111	2	2.3448	3.1265	2.3448
112	2	1.5632	3.9081	2.3448
113	1	0	3.1265	3.1265
114	1	0.78161	3.9081	3.1265
115	1	0.78161	3.1265	3.9081
116	1	0	3.9081	3.9081
117	2	1.5632	3.1265	3.1265
118	2	2.3448	3.9081	3.1265
119	2	2.3448	3.1265	3.9081
120	2	1.5632	3.9081	3.9081
121	1	0	3.1265	4.6897
122	1	0.78161	3.9081	4.6897
123	1	0.78161	3.1265	5.4713
124	1	0	3.9081	5.4713
125	2	1.5632	3.1265	4.6897
126	2	2.3448	3.9081	4.6897
127	2	2.3448	3.1265	5.4713
128	2	1.5632	3.9081	5.4713
129	1	0	3.1265	6.2529
130	1	0.78161	3.9081	6.2529
131	1	0.78161	3.1265	7.0345
132	1	0	3.9081	7.0345
133	2	1.5632	3.1265	6.2529
134	2	2.3448	3.9081	6.2529
135	2	2.3448	3.1265	7.0345
136	2	1.5632	3.9081	7.0345
137	1	0	3.1265	7.8161
138	1	0.78161	3.9081	7.8161
139	1	0.78161	3.1265	8.5977
140	1	0	3.9081	8.5977
141	2	1.5632	3.1265	7.8161
142	2	2.3448	3.9081	7.8161
143	2	2.3448	3.1265	8.5977
144	2	1.5632	3.9081	8.5977
145	1	0	4.6897	0
146	1	0.78161	5.4713	0
147	1	0.78161	4.6897	0.78161
148	1	0	5.4713	0.78161
149	2	1.5632	4.6897	0
150	2	2.3448	5.4713	0
151	2	2.3448	4.6897	0.78161
152	2	1.5632	5.4713	0.78161
153	1	0	4.6897	1.5632
154	1	0.78161	5.4713	1.5632
155	1	0.78161	4.6897	2.3448
156	1	0	5.4713	2.3448
157	2	1.5632	4.6897	1.5632
158	2	2.3448	5.4713	1.5632
159	2	2.3448	4.6897	2.3448
160	2	1.5632	5.4713	2.3448
161	1	0	4.6897	3.1265
162	1	0.78161	5.4713	3.1265
163	1	0.78161	4.6897	3.9081
164	1	0	5.4713	3.9081
165	2	1.5632	4.6897	3.1265
166	2	2.3448	5.4713	3.1265
167	2	2.3448	4.6897	3.9081
168	2	1.5632	5.4713	3.9081
169	1	0	4.6897	4.6897
170	1	0.78161	5.4713	4.6897
171	1	0.78161	4.6897	5.4713
172	1	0	5.4713	5.4713
173	2	1.5632	4.6897	4.6897
174	2	2.3448	5.4713	4.6897
175	2	2.3448	4.6897	5.4713
176	2	1.5632	5.4713	5.4713
177	1	0	4.6897	6.2529
178	1	0.78161	5.4713	6.2529
179	1	0.78161	4.6897	7.0345
180	1	0	5.4713	7.0345
181	2	1.5632	4.6897	6.2529
182	2	2.3448	5.4713	6.2529
183	2	2.3448	4.6897	7.0345
184	2	1.5632	5.4713	7.0345
185	1	0	4.6897	7.8161
186	1	0.78161	5.4713	7.8161
187	1	0.78161	4.6897	8.5977
188	1	0	5.4713	8.5977
189	2	1.5632	4.6897	7.8161
190	2	2.3448	5.4713	7.8161
191	2	2.3448	4.6897	8.5977
192	2	1.5632	5.4713	8.5977
193	1	0	6.2529	0
194	1	0.78161	7.0345	0
195	1	0.78161	6.2529	0.78161
196	1	0	7.0345	0.78161
197	2	1.5632	6.2529	0
198	2	2.3448	7.0345	0
199	2	2.3448	6.2529	0.78161
200	2	1.5632	7.0345	0.78161
201	1	0	6.2529	1.5632
202	1	0.78161	7.0345	1.5632
203	1	0.78161	6.2529	2.3448
204	1	0	7.0345	2.3448
205	2	1.5632	6.2529	1.5632
206	2	2.3448	7.0345	1.5632
207	2	2.3448	6.2529	2.3448
208	2	1.5632	7.0345	2.3448
209	1	0	6.2529	3.1265
210	1	0.78161	7.0345	3.1265
211	1	0.78161	6.2529	3.9081
212	1	0	7.0345	3.9081
213	2	1.5632	6.2529	3.1265
214	2	2.3448	7.0345	3.1265
215	2	2.3448	6.2529	3.9081
216	2	1.5632	7.0345	3.9081
217	1	0	6.2529	4.6897
218	1	0.78161	7.0345	4.6897
219	1	0.78161	6.2529	5.4713
220	1	0	7.0345	5.4713
221	2	1.5632	6.2529	4.6897
222	2	2.3448	7.0345	4.6897
223	2	2.3448	6.2529	5.4713
224	2	1.5632	7.0345	5.4713
225	1	0	6.2529	6.2529
226	1	0.78161	7.0345	6.2529
227	1	0.78161	6.2529	7.0345
228	1	0	7.0345	7.0345
229	2	1.5632	6.2529	6.2529
230	2	2.3448	7.0345	6.2529
231	2	2.3448	6.2529	7.0345
232	2	1.5632	7.0345	7.0345
233	1	0	6.2529	7.8161
234	1	0.78161	7.0345	7.8161
235	1	0.78161	6.2529	8.5977
236	1	0	7.0345	8.5977
237	2	1.5632	6.2529	7.8161
238	2	2.3448	7.0345	7.8161
239	2	2.3448	6.2529	8.5977
240	2	1.5632	7.0345	8.5977
241	1	0	7.8161	0
242	1	0.78161	8.5977	0
243	1	0.78161	7.8161	0.78161
244	1	0	8.5977	0.78161
245	2	1.5632	7.8161	0
246	2	2.3448	8.5977	0
247	2	2.3448	7.8161	0.78161
248	2	1.5632	8.5977	0.78161
249	1	0	7.8161	1.5632
250	1	0.78161	8.5977	1.5632
251	1	0.78161	7.8161	2.3448
252	1	0	8.5977	2.3448
253	2	1.5632	7.8161	1.5632
254	2	2.3448	8.5977	1.5632
255	2	2.3448	7.8161	2.3448
256	2	1.5632	8.5977	2.3448
257	1	0	7.8161	3.1265
258	1	0.78161	8.5977	3.1265
259	1	0.78161	7.8161	3.9081
260	1	0	8.5977	3.9081
261	2	1.5632	7.8161	3.1265
262	2	2.3448	8.5977	3.1265
263	2	2.3448	7.8161	3.9081
264	2	1.5632	8.5977	3.9081
265	1	0	7.8161	4.6897
266	1	0.78161	8.5977	4.6897
267	1	0.78161	7.8161	5.4713
268	1	0	8.5977	5.4713
269	2	1.5632	7.8161	4.6897
270	2	2.3448	8.5977	4.6897
271	2	2.3448	7.8161	5.4713
272	2	1.5632	8.5977	5.4713
273	1	0	7.8161	6.2529
274	1	0.78161	8.5977	6.2529
275	1	0.78161	7.8161	7.0345
276	1	0	8.5977	7.0345
277	2	1.5632	7.8161	6.2529
278	2	2.3448	8.5977	6.2529
279	2	2.3448	7.8161	7.0345
280	2	1.5632	8.5977	7.0345
281	1	0	7.8161	7.8161
282	1	0.78161	8.5977	7.8161
283	1	0.78161	7.8161	8.5977
284	1	0	8.5977	8.5977
285	2	1.5632	7.8161	7.8161
286	2	2.3448	8.5977	7.8161
287	2	2.3448	7.8161	8.5977
288	2	1.5632	8.5977	8.5977
289	1	3.1265	0	0
290	1	3.9081	0.78161	0
291	1	3.9081	0	0.78161
292	1	3.1265	0.78161	0.78161
293	2	4.6897	0	0
294	2	5.4713	0.78161	0
295	2	5.4713	0	0.78161
296	2	4.6897	0.78161	0.78161
297	1	3.1265	0	1.5632
298	1	3.9081	0.78161	1.5632
299	1	3.9081	0	2.3448
300	1	3.1265	0.78161	2.3448
301	2	4.6897	0	1.5632
302	2	5.4713	0.78161	1.5632
303	2	5.4713	0	2.3448
304	2	4.6897	0.78161	2.3448
305	1	3.1265	0	3.1265
306	1	3.9081	0.78161	3.1265
307	1	3.9081	0	3.9081
308	1	3.1265	0.78161	3.9081
309	2	4.6897	0	3.1265
310	2	5.4713	0.78161	3.1265
311	2	5.4713	0	3.9081
312	2	4.6897	0.78161	3.9081
313	1	3.1265	0	4.6897
314	1	3.9081	0.78161	4.6897
315	1	3.9081	0	5.4713
316	1	3.1265	0.78161	5.4713
317	2	4.6897	0	4.6897
318	2	5.4713	0.78161	4.6897
319	2	5.4713	0	5.4713
320	2	4.6897	0.78161	5.4713
321	1	3.1265	0	6.2529
322	1	3.9081	0.78161	6.2529
323	1	3.9081	0	7.0345
324	1	3.1265	0.78161	7.0345
325	2	4.6897	0	6.2529
326	2	5.4713	0.78161	6.2529
327	2	5.4713	0	7.0345
328	2	4.6897	0.78161	7.0345
329	1	3.1265	0	7.8161
330	1	3.9081	0.78161	7.8161
331	1	3.9081	0	8.5977
332	1	3.1265	0.78161	8.5977
333	2	4.6897	0	7.8161
334	2	5.4713	0.78161	7.8161
335	2	5.4713	0	8.5977
336	2	4.6897	0.78161	8.5977
337	1	3.1265	1.5632	0
338	1	3.9081	2.3448	0
339	1	3.9081	1.5632	0.78161
340	1	3.1265	2.3448	0.78161
341	2	4.6897	1.5632	0
342	2	5.4713	2.3448	0
343	2	5.4713	1.5632	0.78161
344	2	4.6897	2.3448	0.78161
345	1	3.1265	1.5632	1.5632
346	1	3.9081	2.3448	1.5632
347	1	3.9081	1.5632	2.3448
348	1	3.1265	2.3448	2.3448
349	2	4.6897	1.5632	1.5632
350	2	5.4713	2.3448	1.5632
351	2	5.4713	1.5632	2.3448
352	2	4.6897	2.3448	2.3448
353	1	3.1265	1.5632	3.1265
354	1	3.9081	2.3448	3.1265
355	1	3.9081	1.5632	3.9081
356	1	3.1265	2.3448	3.9081
357	2	4.6897	1.5632	3.1265
358	2	5.4713	2.3448	3.1265
359	2	5.4713	1.5632	3.9081
360	2	4.6897	2.3448	3.9081
361	1	3.1265	1.5632	4.6897
362	1	3.9081	2.3448	4.6897
363	1	3.9081	1.5632	5.4713
364	1	3.1265	2.3448	5.4713
365	2	4.6897	1.5632	4.6897
366	2	5.4713	2.3448	4.6897
367	2	5.4713	1.5632	5.4713
368	2	4.6897	2.3448	5.4713
369	1	3.1265	1.5632	6.2529
370	1	3.9081	2.3448	6.2529
371	1	3.9081	1.5632	7.0345
372	1	3.1265	2.3448	7.0345
373	2	4.6897	1.5632	6.2529
374	2	5.4713	2.3448	6.2529
375	2	5.4713	1.5632	7.0345
376	2	4.6897	2.3448	7.0345
377	1	3.1265	1.5632	7.8161
378	1	3.9081	2.3448	7.8161
379	1	3.9081	1.5632	8.5977
380	1	3.1265	2.3448	8.5977
381	2	4.6897	1.5632	7.8161
382	2	5.4713	2.3448	7.8161
383	2	5.4713	1.5632	8.5977
384	2	4.6897	2.3448	8.5977
385	1	3.1265	3.1265	0
386	1	3.9081	3.9081	0
387	1	3.9081	3.1265	0.78161
388	1	3.1265	3.9081	0.78161
389	2	4.6897	3.1265	0
390	2	5.4713	3.9081	0
391	2	5.4713	3.1265	0.78161
392	2	4.6897	3.9081	0.78161
393	1	3.1265	3.1265	1.5632
394	1	3.9081	3.9081	1.5632
395	1	3.9081	3.1265	2.3448
396	1	3.1265	3.9081	2.3448
397	2	4.6897	3.1265	1.5632
398	2	5.4713	3.9081	1.5632
399	2	5.4713	3.1265	2.3448
400	2	4.6897	3.9081	2.3448
401	1	3.1265	3.1265	3.1265
402	1	3.9081	3.9081	3.1265
403	1	3.9081	3.1265	3.9081
404	1	3.1265	3.9081	3.9081
405	2	4.6897	3.1265	3.1265
406	2	5.4713	3.9081	3.1265
407	2	5.4713	3.1265	3.9081
408	2	4.6897	3.9081	3.9081
409	1	3.1265	3.1265	4.6897
410	1	3.9081	3.9081	4.6897
411	1	3.9081	3.1265	5.4713
412	1	3.1265	3.9081	5.4713
413	2	4.6897	3.1265	4.6897
414	2	5.4713	3.9081	4.6897
415	2	5.4713	3.1265	5.4713
416	2	4.6897	3.9081	5.4713
417	1	3.1265	3.1265	6.2529
418	1	3.9081	3.9081	6.2529
419	1	3.9081	3.1265	7.0345
420	1	3.1265	3.9081	7.0345
421	2	4.6897	3.1265	6.2529
422	2	5.4713	3.9081	6.2529
423	2	5.4713	3.1265	7.0345
424	2	4.6897	3.9081	7.0345
425	1	3.1265	3.1265	7.8161
426	1	3.9081	3.9081	7.8161
427	1	3.9081	3.1265	8.5977
428	1	3.1265	3.9081	8.5977
429	2	4.6897	3.1265	7.8161
430	2	5.4713	3.9081	7.8161
431	2	5.4713	3.1265	8.5977
432	2	4.6897	3.9081	8.5977
433	1	3.1265	4.6897	0
434	1	3.9081	5.4713	0
435	1	3.9081	4.6897	0.78161
436	1	3.1265	5.4713	0.78161
437	2	4.6897	4.6897	0
438	2	5.4713	5.4713	0
439	2	5.4713	4.6897	0.78161
440	2	4.6897	5.4713	0.78161
441	1	3.1265	4.6897	1.5632
442	1	3.9081	5.4713	1.5632
443	1	3.9081	4.6897	2.3448
444	1	3.1265	5.4713	2.3448
445	2	4.6897	4.6897	1.5632
446	2	5.4713	5.4713	1.5632
447	2	5.4713	4.6897	2.3448
448	2	4.6897	5.4713	2.3448
449	1	3.1265	4.6897	3.1265
450	1	3.9081	5.4713	3.1265
451	1	3.9081	4.6897	3.9081
452	1	3.1265	5.4713	3.9081
453	2	4.6897	4.6897	3.1265
454	2	5.4713	5.4713	3.1265
455	2	5.4713	4.6897	3.9081
456	2	4.6897	5.4713	3.9081
457	1	3.1265	4.6897	4.6897
458	1	3.9081	5.4713	4.6897
459	1	3.9081	4.6897	5.4713
460	1	3.1265	5.4713	5.4713
461	2	4.6897	4.6897	4.6897
462	2	5.4713	5.4713	4.6897
463	2	5.4713	4.6897	5.4713
464	2	4.6897	5.4713	5.4713
465	1	3.1265	4.6897	6.2529
466	1	3.9081	5.4713	6.2529
467	1	3.9081	4.6897	7.0345
468	1	3.1265	5.4713	7.0345
469	2	4.6897	4.6897	6.2529
470	2	5.4713	5.4713	6.2529
471	2	5.4713	4.6897	7.0345
472	2	4.6897	5.4713	7.0345
473	1	3.1265	4.6897	7.8161
474	1	3.9081	5.4713	7.8161
475	1	3.9081	4.6897	8.5977
476	1	3.1265	5.4713	8.5977
477	2	4.6897	4.6897	7.8161
478	2	5.4713	5.4713	7.8161
479	2	5.4713	4.6897	8.5977
480	2	4.6897	5.4713	8.5977
481	1	3.1265	6.2529	0
482	1	3.9081	7.0345	0
483	1	3.9081	6.2529	0.78161
484	1	3.1265	7.0345	0.78161
485	2	4.6897	6.2529	0
486	2	5.4713	7.0345	0
487	2	5.4713	6.2529	0.78161
488	2	4.6897	7.0345	0.78161
489	1	3.1265	6.2529	1.5632
490	1	3.9081	7.0345	1.5632
491	1	3.9081	6.2529	2.3448
492	1	3.1265	7.0345	2.3448
493	2	4.6897	6.2529	1.5632
494	2	5.4713	7.0345	1.5632
495	2	5.4713	6.2529	2.3448
496	2	4.6897	7.0345	2.3448
497	1	3.1265	6.2529	3.1265
498	1	3.9081	7.0345	3.1265
499	1	3.9081	6.2529	3.9081
500	1	3.1265	7.0345	3.9081
501	2	4.6897	6.2529	3.1265
502	2	5.4713	7.0345	3.1265
503	2	5.4713	6.2529	3.9081
504	2	4.6897	7.0345	3.9081
505	1	3.1265	6.2529	4.6897
506	1	3.9081	7.0345	4.6897
507	1	3.9081	6.2529	5.4713
508	1	3.1265	7.0345	5.4713
509	2	4.6897	6.2529	4.6897
510	2	5.4713	7.0345	4.6897
511	2	5.4713	6.2529	5.4713
512	2	4.6897	7.0345	5.4713
513	1	3.1265	6.2529	6.2529
514	1	3.9081	7.0345	6.2529
515	1	3.9081	6.2529	7.0345
516	1	3.1265	7.0345	7.0345
517	2	4.6897	6.2529	6.2529
518	2	5.4713	7.0345	6.2529
519	2	5.4713	6.2529	7.0345
520	2	4.6897	7.0345	7.0345
521	1	3.1265	6.2529	7.8161
522	1	3.9081	7.0345	7.8161
523	1	3.9081	6.2529	8.5977
524	1	3.1265	7.0345	8.5977
525	2	4.6897	6.2529	7.8161
526	2	5.4713	7.0345	7.8161
527	2	5.4713	6.2529	8.5977
528	2	4.6897	7.0345	8.5977
529	1	3.1265	7.8161	0
530	1	3.9081	8.5977	0
531	1	3.9081	7.8161	0.78161
532	1	3.1265	8.5977	0.78161
533	2	4.6897	7.8161	0
534	2	5.4713	8.5977	0
535	2	5.4713	7.8161	0.78161
536	2	4.6897	8.5977	0.78161
537	1	3.1265	7.8161	1.5632
538	1	3.9081	8.5977	1.5632
539	1	3.9081	7.8161	2.3448
540	1	3.1265	8.5977	2.3448
541	2	4.6897	7.8161	1.5632
542	2	5.4713	8.5977	1.5632
543	2	5.4713	7.8161	2.3448
544	2	4.6897	8.5977	2.3448
545	1	3.1265	7.8161	3.1265
546	1	3.9081	8.5977	3.1265
547	1	3.9081	7.8161	3.9081
548	1	3.1265	8.5977	3.9081
549	2	4.6897	7.8161	3.1265
550	2	5.4713	8.5977	3.1265
551	2	5.4713	7.8161	3.9081
552	2	4.6897	8.5977	3.9081
553	1	3.1265	7.8161	4.6897
554	1	3.9081	8.5977	4.6897
555	1	3.9081	7.8161	5.4713
556	1	3.1265	8.5977	5.4713
557	2	4.6897	7.8161	4.6897
558	2	5.4713	8.5977	4.6897
559	2	5.4713	7.8161	5.4713
560	2	4.6897	8.5977	5.4713
561	1	3.1265	7.8161	6.2529
562	1	3.9081	8.5977	6.2529
563	1	3.9081	7.8161	7.0345
564	1	3.1265	8.5977	7.0345
565	2	4.6897	7.8161	6.2529
566	2	5.4713	8.5977	6.2529
567	2	5.4713	7.8161	7.0345
568	2	4.6897	8.5977	7.0345
569	1	3.1265	7.8161	7.8161
570	1	3.9081	8.5977	7.8161
571	1	3.9081	7.8161	8.5977
572	1	3.1265	8.5977	8.5977
573	2	4.6897	7.8161	7.8161
574	2	5.4713	8.5977	7.8161
575	2	5.4713	7.8161	8.5977
576	2	4.6897	8.5977	8.5977
577	1	6.2529	0	0
578	1	7.0345	0.78161	0
579	1	7.0345	0	0.78161
580	1	6.2529	0.78161	0.78161
581	2	7.8161	0	0
582	2	8.5977	0.78161	0
583	2	8.5977	0	0.78161
584	2	7.8161	0.78161	0.78161
585	1	6.2529	0	1.5632
586	1	7.0345	0.78161	1.5632
587	1	7.0345	0	2.3448
588	1	6.2529	0.78161	2.3448
589	2	7.8161	0	1.5632
590	2	8.5977	0.78161	1.5632
591	2	8.5977	0	2.3448
592	2	7.8161	0.78161	2.3448
593	1	6.2529	0	3.1265
594	1	7.0345	0.78161	3.1265
595	1	7.0345	0	3.9081
596	1	6.2529	0.78161	3.9081
597	2	7.8161	0	3.1265
598	2	8.5977	0.78161	3.1265
599	2	8.5977	0	3.9081
600	2	7.8161	0.78161	3.9081
601	1	6.2529	0	4.6897
602	1	7.0345	0.78161	4.6897
603	1	7.0345	0	5.4713
604	1	6.2529	0.78161	5.4713
605	2	7.8161	0	4.6897
606	2	8.5977	0.78161	4.6897
607	2	8.5977	0	5.4713
608	2	7.8161	0.78161	5.4713
609	1	6.2529	0	6.2529
610	1	7.0345	0.78161	6.2529
611	1	7.0345	0	7.0345
612	1	6.2529	0.78161	7.0345
613	2	7.8161	0	6.2529
614	2	8.5977	0.78161	6.2529
615	2	8.5977	0	7.0345
616	2	7.8161	0.78161	7.0345
617	1	6.2529	0	7.8161
618	1	7.0345	0.78161	7.8161
619	1	7.0345	0	8.5977
620	1	6.2529	0.78161	8.5977
621	2	7.8161	0	7.8161
622	2	8.5977	0.78161	7.8161
623	2	8.5977	0	8.5977
624	2	7.8161	0.78161	8.5977
625	1	6.2529	1.5632	0
626	1	7.0345	2.3448	0
627	1	7.0345	1.5632	0.78161
628	1	6.2529	2.3448	0.78161
629	2	7.8161	1.5632	0
630	2	8.5977	2.3448	0
631	2	8.5977	1.5632	0.78161
632	2	7.8161	2.3448	0.78161
633	1	6.2529	1.5632	1.5632
634	1	7.0345	2.3448	1.5632
635	1	7.0345	1.5632	2.3448
636	1	6.2529	2.3448	2.3448
637	2	7.8161	1.5632	1.5632
638	2	8.5977	2.3448	1.5632
639	2	8.5977	1.5632	2.3448
640	2	7.8161	2.3448	2.3448
641	1	6.2529	1.5632	3.1265
642	1	7.0345	2.3448	3.1265
643	1	7.0345	1.5632	3.9081
644	1	6.2529	2.3448	3.9081
645	2	7.8161	1.5632	3.1265
646	2	8.5977	2.3448	3.1265
647	2	8.5977	1.5632	3.9081
648	2	7.8161	2.3448	3.9081
649	1	6.2529	1.5632	4.6897
650	1	7.0345	2.3448	4.6897
651	1	7.0345	1.5632	5.4713
652	1	6.2529	2.3448	5.4713
653	2	7.8161	1.5632	4.6897
654	2	8.5977	2.3448	4.6897
655	2	8.5977	1.5632	5.4713
656	2	7.8161	2.3448	5.4713
657	1	6.2529	1.5632	6.2529
658	1	7.0345	2.3448	6.2529
659	1	7.0345	1.5632	7.0345
660	1	6.2529	2.3448	7.0345
661	2	7.8161	1.5632	6.2529
662	2	8.5977	2.3448	6.2529
663	2	8.5977	1.5632	7.0345
664	2	7.8161	2.3448	7.0345
665	1	6.2529	1.5632	7.8161
666	1	7.0345	2.3448	7.8161
667	1	7.0345	1.5632	8.5977
668	1	6.2529	2.3448	8.5977
669	2	7.8161	1.5632	7.8161
670	2	8.5977	2.3448	7.8161
671	2	8.5977	1.5632	8.5977
672	2	7.8161	2.3448	8.5977
673	1	6.2529	3.1265	0
674	1	7.0345	3.9081	0
675	1	7.0345	3.1265	0.78161
676	1	6.2529	3.9081	0.78161
677	2	7.8161	3.1265	0
678	2	8.5977	3.9081	0
679	2	8.5977	3.1265	0.78161
680	2	7.8161	3.9081	0.78161
681	1	6.2529	3.1265	1.5632
682	1	7.0345	3.9081	1.5632
683	1	7.0345	3.1265	2.3448
684	1	6.2529	3.9081	2.3448
685	2	7.8161	3.1265	1.5632
686	2	8.5977	3.9081	1.5632
687	2	8.5977	3.1265	2.3448
688	2	7.8161	3.9081	2.3448
689	1	6.2529	3.1265	3.1265
690	1	7.0345	3.9081	3.1265
691	1	7.0345	3.1265	3.9081
692	1	6.2529	3.9081	3.9081
693	2	7.8161	3.1265	3.1265
694	2	8.5977	3.9081	3.1265
695	2	8.5977	3.1265	3.9081
696	2	7.8161	3.9081	3.9081
697	1	6.2529	3.1265	4.6897
698	1	7.0345	3.9081	4.6897
699	1	7.0345	3.1265	5.4713
700	1	6.2529	3.9081	5.4713
701	2	7.8161	3.1265	4.6897
702	2	8.5977	3.9081	4.6897
703	2	8.5977	3.1265	5.4713
704	2	7.8161	3.9081	5.4713
705	1	6.2529	3.1265	6.2529
706	1	7.0345	3.9081	6.2529
707	1	7.0345	3.1265	7.0345
708	1	6.2529	3.9081	7.0345
709	2	7.8161	3.1265	6.2529
710	2	8.5977	3.9081	6.2529
711	2	8.5977	3.1265	7.0345
712	2	7.8161	3.9081	7.0345
713	1	6.2529	3.1265	7.8161
714	1	7.0345	3.9081	7.8161
715	1	7.0345	3.1265	8.5977
716	1	6.2529	3.9081	8.5977
717	2	7.8161	3.1265	7.8161
718	2	8.5977	3.9081	7.8161
719	2	8.5977	3.1265	8.5977
720	2	7.8161	3.9081	8.5977
721	1	6.2529	4.6897	0
722	1	7.0345	5.4713	0
723	1	7.0345	4.6897	0.78161
724	1	6.2529	5.4713	0.78161
725	2	7.8161	4.6897	0
726	2	8.5977	5.4713	0
727	2	8.5977	4.6897	0.78161
728	2	7.8161	5.4713	0.78161
729	1	6.2529	4.6897	1.5632
730	1	7.0345	5.4713	1.5632
731	1	7.0345	4.6897	2.3448
732	1	6.2529	5.4713	2.3448
733	2	7.8161	4.6897	1.5632
734	2	8.5977	5.4713	1.5632
735	2	8.5977	4.6897	2.3448
736	2	7.8161	5.4713	2.3448
737	1	6.2529	4.6897	3.1265
738	1	7.0345	5.4713	3.1265
739	1	7.0345	4.6897	3.9081
740	1	6.2529	5.4713	3.9081
741	2	7.8161	4.6897	3.1265
742	2	8.5977	5.4713	3.1265
743	2	8.5977	4.6897	3.9081
744	2	7.8161	5.4713	3.9081
745	1	6.2529	4.6897	4.6897
746	1	7.0345	5.4713	4.6897
747	1	7.0345	4.6897	5.4713
748	1	6.2529	5.4713	5.4713
749	2	7.8161	4.6897	4.6897
750	2	8.5977	5.4713	4.6897
751	2	8.5977	4.6897	5.4713
752	2	7.8161	5.4713	5.4713
753	1	6.2529	4.6897	6.2529
754	1	7.0345	5.4713	6.2529
755	1	7.0345	4.6897	7.0345
756	1	6.2529	5.4713	7.0345
757	2	7.8161	4.6897	6.2529
758	2	8.5977	5.4713	6.2529
759	2	8.5977	4.6897	7.0345
760	2	7.8161	5.4713	7.0345
761	1	6.2529	4.6897	7.8161
762	1	7.0345	5.4713	7.8161
763	1	7.0345	4.6897	8.5977
764	1	6.2529	5.4713	8.5977
765	2	7.8161	4.6897	7.8161
766	2	8.5977	5.4713	7.8161
767	2	8.5977	4.6897	8.5977
768	2	7.8161	5.4713	8.5977
769	1	6.2529	6.2529	0
770	1	7.0345	7.0345	0
771	1	7.0345	6.2529	0.78161
772	1	6.2529	7.0345	0.78161
773	2	7.8161	6.2529	0
774	2	8.5977	7.0345	0
775	2	8.5977	6.2529	0.78161
776	2	7.8161	7.0345	0.78161
777	1	6.2529	6.2529	1.5632
778	1	7.0345	7.0345	1.5632
779	1	7.0345	6.2529	2.3448
780	1	6.2529	7.0345	2.3448
781	2	7.8161	6.2529	1.5632
782	2	8.5977	7.0345	1.5632
783	2	8.5977	6.2529	2.3448
784	2	7.8161	7.0345	2.3448
785	1	6.2529	6.2529	3.1265
786	1	7.0345	7.0345	3.1265
787	1	7.0345	6.2529	3.9081
788	1	6.2529	7.0345	3.9081
789	2	7.8161	6.2529	3.1265
790	2	8.5977	7.0345	3.1265
791	2	8.5977	6.2529	3.9081
792	2	7.8161	7.0345	3.9081
793	1	6.2529	6.2529	4.6897
794	1	7.0345	7.0345	4.6897
795	1	7.0345	6.2529	5.4713
796	1	6.2529	7.0345	5.4713
797	2	7.8161	6.2529	4.6897
798	2	8.5977	7.0345	4.6897
799	2	8.5977	6.2529	5.4713
800	2	7.8161	7.0345	5.4713
801	1	6.2529	6.2529	6.2529
802	1	7.0345	7.0345	6.2529
803	1	7.0345	6.2529	7.0345
804	1	6.2529	7.0345	7.0345
805	2	7.8161	6.2529	6.2529
806	2	8.5977	7.0345	6.2529
807	2	8.5977	6.2529	7.0345
808	2	7.8161	7.0345	7.0345
809	1	6.2529	6.2529	7.8161
810	1	7.0345	7.0345	7.8161
811	1	7.0345	6.2529	8.5977
812	1	6.2529	7.0345	8.5977
813	2	7.8161	6.2529	7.8161
814	2	8.5977	7.0345	7.8161
815	2	8.5977	6.2529	8.5977
816	2	7.8161	7.0345	8.5977
817	1	6.2529	7.8161	0
818	1	7.0345	8.5977	0
819	1	7.0345	7.8161	0.78161
820	1	6.2529	8.5977	0.78161
821	2	7.8161	7.8161	0
822	2	8.5977	8.5977	0
823	2	8.5977	7.8161	0.78161
824	2	7.8161	8.5977	0.78161
825	1	6.2529	7.8161	1.5632
826	1	7.0345	8.5977	1.5632
827	1	7.0345	7.8161	2.3448
828	1	6.2529	8.5977	2.3448
829	2	7.8161	7.8161	1.5632
830	2	8.5977	8.5977	1.5632
831	2	8.5977	7.8161	2.3448
832	2	7.8161	8.5977	2.3448
833	1	6.2529	7.8161	3.1265
834	1	7.0345	8.5977	3.1265
835	1	7.0345	7.8161	3.9081
836	1	6.2529	8.5977	3.9081
837	2	7.8161	7.8161	3.1265
838	2	8.5977	8.5977	3.1265
839	2	8.5977	7.8161	3.9081
840	2	7.8161	8.5977	3.9081
841	1	6.2529	7.8161	4.6897
842	1	7.0345	8.5977	4.6897
843	1	7.0345	7.8161	5.4713
844	1	6.2529	8.5977	5.4713
845	2	7.8161	7.8161	4.6897
846	2	8.5977	8.5977	4.6897
847	2	8.5977	7.8161	5.4713
848	2	7.8161	8.5977	5.4713
849	1	6.2529	7.8161	6.2529
850	1	7.0345	8.5977	6.2529
851	1	7.0345	7.8161	7.0345
852	1	6.2529	8.5977	7.0345
853	2	7.8161	7.8161	6.2529
854	2	8.5977	8.5977	6.2529
855	2	8.5977	7.8161	7.0345
856	2	7.8161	8.5977	7.0345
857	1	6.2529	7.8161	7.8161
858	1	7.0345	8.5977	7.8161
859	1	7.0345	7.8161	8.5977
860	1	6.2529	8.5977	8.5977
861	2	7.8161	7.8161	7.8161
862	2	8.5977	8.5977	7.8161
863	2	8.5977	7.8161	8.5977
864	2	7.8161	8.5977	8.5977
865	1	9.3794	0	0
866	1	10.161	0.78161	0
867	1	10.161	0	0.78161
868	1	9.3794	0.78161	0.78161
869	2	10.943	0	0
870	2	11.724	0.78161	0
871	2	11.724	0	0.78161
872	2	10.943	0.78161	0.78161
873	1	9.3794	0	1.5632
874	1	10.161	0.78161	1.5632
875	1	10.161	0	2.3448
876	1	9.3794	0.78161	2.3448
877	2	10.943	0	1.5632
878	2	11.724	0.78161	1.5632
879	2	11.724	0	2.3448
880	2	10.943	0.78161	2.3448
881	1	9.3794	0	3.1265
882	1	10.161	0.78161	3.1265
883	1	10.161	0	3.9081
884	1	9.3794	0.78161	3.9081
885	2	10.943	0	3.1265
886	2	11.724	0.78161	3.1265
887	2	11.724	0	3.9081
888	2	10.943	0.78161	3.9081
889	1	9.3794	0	4.6897
890	1	10.161	0.78161	4.6897
891	1	10.161	0	5.4713
892	1	9.3794	0.78161	5.4713
893	2	10.943	0	4.6897
894	2	11.724	0.78161	4.6897
895	2	11.724	0	5.4713
896	2	10.943	0.78161	5.4713
897	1	9.3794	0	6.2529
898	1	10.161	0.78161	6.2529
899	1	10.161	0	7.0345
900	1	9.3794	0.78161	7.0345
901	2	10.943	0	6.2529
902	2	11.724	0.78161	6.2529
903	2	11.724	0	7.0345
904	2	10.943	0.78161	7.0345
905	1	9.3794	0	7.8161
906	1	10.161	0.78161	7.8161
907	1	10.161	0	8.5977
908	1	9.3794	0.78161	8.5977
909	2	10.943	0	7.8161
910	2	11.724	0.78161	7.8161
911	2	11.724	0	8.5977
912	2	10.943	0.78161	8.5977
913	1	9.3794	1.5632	0
914	1	10.161	2.3448	0
915	1	10.161	1.5632	0.78161
916	1	9.3794	2.3448	0.78161
917	2	10.943	1.5632	0
918	2	11.724	2.3448	0
919	2	11.724	1.5632	0.78161
920	2	10.943	2.3448	0.78161
921	1	9.3794	1.5632	1.5632
922	1	10.161	2.3448	1.5632
923	1	10.161	1.5632	2.3448
924	1	9.3794	2.3448	2.3448
925	2	10.943	1.5632	1.5632
926	2	11.724	2.3448	1.5632
927	2	11.724	1.5632	2.3448
928	2	10.943	2.3448	2.3448
929	1	9.3794	1.5632	3.1265
930	1	10.161	2.3448	3.1265
931	1	10.161	1.5632	3.9081
932	1	9.3794	2.3448	3.9081
933	2	10.943	1.5632	3.1265
934	2	11.724	2.3448	3.1265
935	2	11.724	1.5632	3.9081
936	2	10.943	2.3448	3.9081
937	1	9.3794	1.5632	4.6897
938	1	10.161	2.3448	4.6897
939	1	10.161	1.5632	5.4713
940	1	9.3794	2.3448	5.4713
941	2	10.943	1.5632	4.6897
942	2	11.724	2.3448	4.6897
943	2	11.724	1.5632	5.4713
944	2	10.943	2.3448	5.4713
945	1	9.3794	1.5632	6.2529
946	1	10.161	2.3448	6.2529
947	1	10.161	1.5632	7.0345
948	1	9.3794	2.3448	7.0345
949	2	10.943	1.5632	6.2529
950	2	11.724	2.3448	6.2529
951	2	11.724	1.5632	7.0345
952	2	10.943	2.3448	7.0345
953	1	9.3794	1.5632	7.8161
954	1	10.161	2.3448	7.8161
955	1	10.161	1.5632	8.5977
956	1	9.3794	2.3448	8.5977
957	2	10.943	1.5632	7.8161
958	2	11.724	2.3448	7.8161
959	2	11.724	1.5632	8.5977
960	2	10.943	2.3448	8.5977
961	1	9.3794	3.1265	0
962	1	10.161	3.9081	0
963	1	10.161	3.1265	0.78161
964	1	9.3794	3.9081	0.78161
965	2	10.943	3.1265	0
966	2	11.724	3.9081	0
967	2	11.724	3.1265	0.78161
968	2	10.943	3.9081	0.78161
969	1	9.3794	3.1265	1.5632
970	1	10.161	3.9081	1.5632
971	1	10.161	3.1265	2.3448
972	1	9.3794	3.9081	2.3448
973	2	10.943	3.1265	1.5632
974	2	11.724	3.9081	1.5632
975	2	11.724	3.1265	2.3448
976	2	10.943	3.9081	2.3448
977	1	9.3794	3.1265	3.1265
978	1	10.161	3.9081	3.1265
979	1	10.161	3.1265	3.9081
980	1	9.3794	3.9081	3.9081
981	2	10.943	3.1265	3.1265
982	2	11.724	3.9081	3.1265
983	2	11.724	3.1265	3.9081
984	2	10.943	3.9081	3.9081
985	1	9.3794	3.1265	4.6897
986	1	10.161	3.9081	4.6897
987	1	10.161	3.1265	5.4713
988	1	9.3794	3.9081	5.4713
989	2	10.943	3.1265	4.6897
990	2	11.724	3.9081	4.6897
991	2	11.724	3.1265	5.4713
992	2	10.943	3.9081	5.4713
993	1	9.3794	3.1265	6.2529
994	1	10.161	3.9081	6.2529
995	1	10.161	3.1265	7.0345
996	1	9.3794	3.9081	7.0345
997	2	10.943	3.1265	6.2529
998	2	11.724	3.9081	6.2529
999	2	11.724	3.1265	7.0345
1000	2	10.943	3.9081	7.0345
1001	1	9.3794	3.1265	7.8161
1002	1	10.161	3.9081	7.8161
1003	1	10.161	3.1265	8.5977
1004	1	9.3794	3.9081	8.5977
1005	2	10.943	3.1265	7.8161
1006	2	11.724	3.9081	7.8161
1007	2	11.724	3.1265	8.5977
1008	2	10.943	3.9081	8.5977
1009	1	9.3794	4.6897	0
1010	1	10.161	5.4713	0
1011	1	10.161	4.6897	0.78161
1012	1	9.3794	5.4713	0.78161
1013	2	10.943	4.6897	0
1014	2	11.724	5.4713	0
1015	2	11.724	4.6897	0.78161
1016	2	10.943	5.4713	0.78161
1017	1	9.3794	4.6897	1.5632
1018	1	10.161	5.4713	1.5632
1019	1	10.161	4.6897	2.3448
1020	1	9.3794	5.4713	2.3448
1021	2	10.943	4.6897	1.5632
1022	2	11.724	5.4713	1.5632
1023	2	11.724	4.6897	2.3448
1024	2	10.943	5.4713	2.3448
1025	1	9.3794	4.6897	3.1265
1026	1	10.161	5.4713	3.1265
1027	1	10.161	4.6897	3.9081
1028	1	9.3794	5.4713	3.9081
1029	2	10.943	4.6897	3.1265
1030	2	11.724	5.4713	3.1265
1031	2	11.724	4.6897	3.9081
1032	2	10.943	5.4713	3.9081
1033	1	9.3794	4.6897	4.6897
1034	1	10.161	5.4713	4.6897
1035	1	10.161	4.6897	5.4713
1036	1	9.3794	5.4713	5.4713
1037	2	10.943	4.6897	4.6897
1038	2	11.724	5.4713	4.6897
1039	2	11.724	4.6897	5.4713
1040	2	10.943	5.4713	5.4713
1041	1	9.3794	4.6897	6.2529
1042	1	10.161	5.4713	6.2529
1043	1	10.161	4.6897	7.0345
1044	1	9.3794	5.4713	7.0345
1045	2	10.943	4.6897	6.2529
1046	2	11.724	5.4713	6.2529
1047	2	11.724	4.6897	7.0345
1048	2	10.943	5.4713	7.0345
1049	1	9.3794	4.6897	7.8161
1050	1	10.161	5.4713	7.8161
1051	1	10.161	4.6897	8.5977
1052	1	9.3794	5.4713	8.5977
1053	2	10.943	4.6897	7.8161
1054	2	11.724	5.4713	7.8161
1055	2	11.724	4.6897	8.5977
1056	2	10.943	5.4713	8.5977
1057	1	9.3794	6.2529	0
1058	1	10.161	7.0345	0
1059	1	10.161	6.2529	0.78161
1060	1	9.3794	7.0345	0.78161
1061	2	10.943	6.2529	0
1062	2	11.724	7.0345	0
1063	2	11.724	6.2529	0.78161
1064	2	10.943	7.0345	0.78161
1065	1	9.3794	6.2529	1.5632
1066	1	10.161	7.0345	1.5632
1067	1	10.161	6.2529	2.3448
1068	1	9.3794	7.0345	2.3448
1069	2	10.943	6.2529	1.5632
1070	2	11.724	7.0345	1.5632
1071	2	11.724	6.2529	2.3448
1072	2	10.943	7.0345	2.3448
1073	1	9.3794	6.2529	3.1265
1074	1	10.161	7.0345	3.1265
1075	1	10.161	6.2529	3.9081
1076	1	9.3794	7.0345	3.9081
1077	2	10.943	6.2529	3.1265
1078	2	11.724	7.0345	3.1265
1079	2	11.724	6.2529	3.9081
1080	2	10.943	7.0345	3.9081
1081	1	9.3794	6.2529	4.6897
1082	1	10.161	7.0345	4.6897
1083	1	10.161	6.2529	5.4713
1084	1	9.3794	7.0345	5.4713
1085	2	10.943	6.2529	4.6897
1086	2	11.724	7.0345	4.6897
1087	2	11.724	6.2529	5.4713
1088	2	10.943	7.0345	5.4713
1089	1	9.3794	6.2529	6.2529
1090	1	10.161	7.0345	6.2529
1091	1	10.161	6.2529	7.0345
1092	1	9.3794	7.0345	7.0345
1093	2	10.943	6.2529	6.2529
1094	2	11.724	7.0345	6.2529
1095	2	11.724	6.2529	7.0345
1096	2	10.943	7.0345	7.0345
1097	1	9.3794	6.2529	7.8161
1098	1	10.161	7.0345	7.8161
1099	1	10.161	6.2529	8.5977
1100	1	9.3794	7.0345	8.5977
1101	2	10.943	6.2529	7.8161
1102	2	11.724	7.0345	7.8161
1103	2	11.724	6.2529	8.5977
1104	2	10.943	7.0345	8.5977
1105	1	9.3794	7.8161	0
1106	1	10.161	8.5977	0
1107	1	10.161	7.8161	0.78161
1108	1	9.3794	8.5977	0.78161
1109	2	10.943	7.8161	0
1110	2	11.724	8.5977	0
1111	2	11.724	7.8161	0.78161
1112	2	10.943	8.5977	0.78161
1113	1	9.3794	7.8161	1.5632
1114	1	10.161	8.5977	1.5632
1115	1	10.161	7.8161	2.3448
1116	1	9.3794	8.5977	2.3448
1117	2	10.943	7.8161	1.5632
1118	2	11.724	8.5977	1.5632
1119	2	11.724	7.8161	2.3448
1120	2	10.943	8.5977	2.3448
1121	1	9.3794	7.8161	3.1265
1122	1	10.161	8.5977	3.1265
1123	1	10.161	7.8161	3.9081
1124	1	9.3794	8.5977	3.9081
1125	2	10.943	7.8161	3.1265
1126	2	11.724	8.5977	3.1265
1127	2	11.724	7.8161	3.9081
1128	2	10.943	8.5977	3.9081
1129	1	9.3794	7.8161	4.6897
1130	1	10.161	8.5977	4.6897
1131	1	10.161	7.8161	5.4713
1132	1	9.3794	8.5977	5.4713
1133	2	10.943	7.8161	4.6897
1134	2	11.724	8.5977	4.6897
1135	2	11.724	7.8161	5.4713
1136	2	10.943	8.5977	5.4713
1137	1	9.3794	7.8161	6.2529
1138	1	10.161	8.5977	6.2529
1139	1	10.161	7.8161	7.0345
1140	1	9.3794	8.5977	7.0345
1141	2	10.943	7.8161	6.2529
1142	2	11.724	8.5977	6.2529
1143	2	11.724	7.8161	7.0345