TITLE= "Eigenvector-Sam H" 
VARIABLES= "I","J","K","U","V","W"  
ZONE T="U profile", I = 25, J = 9, K = 9, F=POINT 
   1    1    1 0.0742 0.0715 0.0715 
   2    2    1 0.0798 0.0394 0.0394 
   2    1    2 0.0798 0.0394 0.0394 
   1    2    2 0.0743 0.0716 0.0716 
   3    1    1 0.0798 0.0394 0.0394 
   4    2    1 0.0743 0.0716 0.0716 
   4    1    2 0.0743 0.0716 0.0716 
   3    2    2 0.0798 0.0394 0.0394 
   5    1    1 0.2691 0.1276 0.1276 
   5    2    1 0.1553 0.2187 0.2187 
   5    1    2 0.1553 0.2187 0.2187 
   5    2    2 0.2691 0.1276 0.1276 
   6    1    1 0.1553 0.2187 0.2187 
   7    2    1 0.2691 0.1276 0.1277 
   7    1    2 0.2691 0.1277 0.1276 
   6    2    2 0.1553 0.2187 0.2187 
   1    1    3 0.0742 0.0715 0.0715 
   2    2    3 0.0798 0.0394 0.0394 
   2    1    4 0.0798 0.0394 0.0394 
   1    2    4 0.0743 0.0716 0.0716 
   3    1    3 0.0798 0.0394 0.0394 
   4    2    3 0.0743 0.0716 0.0716 
   4    1    4 0.0743 0.0716 0.0716 
   3    2    4 0.0798 0.0394 0.0394 
   5    1    3 0.2691 0.1276 0.1276 
   5    2    3 0.1553 0.2187 0.2187 
   5    1    4 0.1553 0.2187 0.2187 
   5    2    4 0.2691 0.1276 0.1276 
   6    1    3 0.1553 0.2187 0.2187 
   7    2    3 0.2691 0.1276 0.1277 
   7    1    4 0.2691 0.1277 0.1276 
   6    2    4 0.1553 0.2187 0.2187 
   1    1    5 0.0742 0.0715 0.0715 
   2    2    5 0.0798 0.0394 0.0394 
   2    1    5 0.0798 0.0394 0.0394 
   1    2    5 0.0743 0.0716 0.0716 
   3    1    5 0.0798 0.0394 0.0394 
   4    2    5 0.0743 0.0716 0.0716 
   4    1    5 0.0743 0.0716 0.0716 
   3    2    5 0.0798 0.0394 0.0394 
   5    1    5 0.2691 0.1276 0.1276 
   5    2    5 0.1553 0.2187 0.2187 
   5    1    5 0.1553 0.2187 0.2187 
   5    2    5 0.2691 0.1276 0.1276 
   6    1    5 0.1553 0.2187 0.2187 
   7    2    5 0.2691 0.1276 0.1277 
   7    1    5 0.2691 0.1277 0.1276 
   6    2    5 0.1553 0.2187 0.2187 
   1    1    6 0.0742 0.0715 0.0715 
   2    2    6 0.0798 0.0394 0.0394 
   2    1    7 0.0798 0.0394 0.0394 
   1    2    7 0.0743 0.0716 0.0716 
   3    1    6 0.0798 0.0394 0.0394 
   4    2    6 0.0743 0.0716 0.0716 
   4    1    7 0.0743 0.0716 0.0716 
   3    2    7 0.0798 0.0394 0.0394 
   5    1    6 0.2691 0.1276 0.1276 
   5    2    6 0.1553 0.2187 0.2187 
   5    1    7 0.1553 0.2187 0.2187 
   5    2    7 0.2691 0.1276 0.1276 
   6    1    6 0.1553 0.2187 0.2187 
   7    2    6 0.2691 0.1276 0.1277 
   7    1    7 0.2691 0.1277 0.1276 
   6    2    7 0.1553 0.2187 0.2187 
   1    1    8 0.0742 0.0715 0.0715 
   2    2    8 0.0798 0.0394 0.0394 
   2    1    9 0.0798 0.0394 0.0394 
   1    2    9 0.0743 0.0716 0.0716 
   3    1    8 0.0798 0.0394 0.0394 
   4    2    8 0.0743 0.0716 0.0716 
   4    1    9 0.0743 0.0716 0.0716 
   3    2    9 0.0798 0.0394 0.0394 
   5    1    8 0.2691 0.1276 0.1276 
   5    2    8 0.1553 0.2187 0.2187 
   5    1    9 0.1553 0.2187 0.2187 
   5    2    9 0.2691 0.1276 0.1276 
   6    1    8 0.1553 0.2187 0.2187 
   7    2    8 0.2691 0.1276 0.1277 
   7    1    9 0.2691 0.1277 0.1276 
   6    2    9 0.1553 0.2187 0.2187 
   1    1    9 0.0742 0.0715 0.0715 
   2    2    9 0.0798 0.0394 0.0394 
   2    1   10 0.0798 0.0394 0.0394 
   1    2   10 0.0743 0.0716 0.0716 
   3    1    9 0.0798 0.0394 0.0394 
   4    2    9 0.0743 0.0716 0.0716 
   4    1   10 0.0743 0.0716 0.0716 
   3    2   10 0.0798 0.0394 0.0394 
   5    1    9 0.2691 0.1276 0.1276 
   5    2    9 0.1553 0.2187 0.2187 
   5    1   10 0.1553 0.2187 0.2187 
   5    2   10 0.2691 0.1276 0.1276 
   6    1    9 0.1553 0.2187 0.2187 
   7    2    9 0.2691 0.1276 0.1277 
   7    1   10 0.2691 0.1277 0.1276 
   6    2   10 0.1553 0.2187 0.2187 
   1    3    1 0.0742 0.0715 0.0715 
   2    4    1 0.0798 0.0394 0.0394 
   2    3    2 0.0798 0.0394 0.0394 
   1    4    2 0.0743 0.0716 0.0716 
   3    3    1 0.0798 0.0394 0.0394 
   4    4    1 0.0743 0.0716 0.0716 
   4    3    2 0.0743 0.0716 0.0716 
   3    4    2 0.0798 0.0394 0.0394 
   5    3    1 0.2691 0.1276 0.1276 
   5    4    1 0.1553 0.2187 0.2187 
   5    3    2 0.1553 0.2187 0.2187 
   5    4    2 0.2691 0.1276 0.1276 
   6    3    1 0.1553 0.2187 0.2187 
   7    4    1 0.2691 0.1276 0.1277 
   7    3    2 0.2691 0.1277 0.1276 
   6    4    2 0.1553 0.2187 0.2187 
   1    3    3 0.0742 0.0715 0.0715 
   2    4    3 0.0798 0.0394 0.0394 
   2    3    4 0.0798 0.0394 0.0394 
   1    4    4 0.0743 0.0716 0.0716 
   3    3    3 0.0798 0.0394 0.0394 
   4    4    3 0.0743 0.0716 0.0716 
   4    3    4 0.0743 0.0716 0.0716 
   3    4    4 0.0798 0.0394 0.0394 
   5    3    3 0.2691 0.1276 0.1276 
   5    4    3 0.1553 0.2187 0.2187 
   5    3    4 0.1553 0.2187 0.2187 
   5    4    4 0.2691 0.1276 0.1276 
   6    3    3 0.1553 0.2187 0.2187 
   7    4    3 0.2691 0.1276 0.1277 
   7    3    4 0.2691 0.1277 0.1276 
   6    4    4 0.1553 0.2187 0.2187 
   1    3    5 0.0742 0.0715 0.0715 
   2    4    5 0.0798 0.0394 0.0394 
   2    3    5 0.0798 0.0394 0.0394 
   1    4    5 0.0743 0.0716 0.0716 
   3    3    5 0.0798 0.0394 0.0394 
   4    4    5 0.0743 0.0716 0.0716 
   4    3    5 0.0743 0.0716 0.0716 
   3    4    5 0.0798 0.0394 0.0394 
   5    3    5 0.2691 0.1276 0.1276 
   5    4    5 0.1553 0.2187 0.2187 
   5    3    5 0.1553 0.2187 0.2187 
   5    4    5 0.2691 0.1276 0.1276 
   6    3    5 0.1553 0.2187 0.2187 
   7    4    5 0.2691 0.1276 0.1277 
   7    3    5 0.2691 0.1277 0.1276 
   6    4    5 0.1553 0.2187 0.2187 
   1    3    6 0.0742 0.0715 0.0715 
   2    4    6 0.0798 0.0394 0.0394 
   2    3    7 0.0798 0.0394 0.0394 
   1    4    7 0.0743 0.0716 0.0716 
   3    3    6 0.0798 0.0394 0.0394 
   4    4    6 0.0743 0.0716 0.0716 
   4    3    7 0.0743 0.0716 0.0716 
   3    4    7 0.0798 0.0394 0.0394 
   5    3    6 0.2691 0.1276 0.1276 
   5    4    6 0.1553 0.2187 0.2187 
   5    3    7 0.1553 0.2187 0.2187 
   5    4    7 0.2691 0.1276 0.1276 
   6    3    6 0.1553 0.2187 0.2187 
   7    4    6 0.2691 0.1276 0.1277 
   7    3    7 0.2691 0.1277 0.1276 
   6    4    7 0.1553 0.2187 0.2187 
   1    3    8 0.0742 0.0715 0.0715 
   2    4    8 0.0798 0.0394 0.0394 
   2    3    9 0.0798 0.0394 0.0394 
   1    4    9 0.0743 0.0716 0.0716 
   3    3    8 0.0798 0.0394 0.0394 
   4    4    8 0.0743 0.0716 0.0716 
   4    3    9 0.0743 0.0716 0.0716 
   3    4    9 0.0798 0.0394 0.0394 
   5    3    8 0.2691 0.1276 0.1276 
   5    4    8 0.1553 0.2187 0.2187 
   5    3    9 0.1553 0.2187 0.2187 
   5    4    9 0.2691 0.1276 0.1276 
   6    3    8 0.1553 0.2187 0.2187 
   7    4    8 0.2691 0.1276 0.1277 
   7    3    9 0.2691 0.1277 0.1276 
   6    4    9 0.1553 0.2187 0.2187 
   1    3    9 0.0742 0.0715 0.0715 
   2    4    9 0.0798 0.0394 0.0394 
   2    3   10 0.0798 0.0394 0.0394 
   1    4   10 0.0743 0.0716 0.0716 
   3    3    9 0.0798 0.0394 0.0394 
   4    4    9 0.0743 0.0716 0.0716 
   4    3   10 0.0743 0.0716 0.0716 
   3    4   10 0.0798 0.0394 0.0394 
   5    3    9 0.2691 0.1276 0.1276 
   5    4    9 0.1553 0.2187 0.2187 
   5    3   10 0.1553 0.2187 0.2187 
   5    4   10 0.2691 0.1276 0.1276 
   6    3    9 0.1553 0.2187 0.2187 
   7    4    9 0.2691 0.1276 0.1277 
   7    3   10 0.2691 0.1277 0.1276 
   6    4   10 0.1553 0.2187 0.2187 
   1    5    1 0.0742 0.0715 0.0715 
   2    5    1 0.0798 0.0394 0.0394 
   2    5    2 0.0798 0.0394 0.0394 
   1    5    2 0.0743 0.0716 0.0716 
   3    5    1 0.0798 0.0394 0.0394 
   4    5    1 0.0743 0.0716 0.0716 
   4    5    2 0.0743 0.0716 0.0716 
   3    5    2 0.0798 0.0394 0.0394 
   5    5    1 0.2691 0.1276 0.1276 
   5    5    1 0.1553 0.2187 0.2187 
   5    5    2 0.1553 0.2187 0.2187 
   5    5    2 0.2691 0.1276 0.1276 
   6    5    1 0.1553 0.2187 0.2187 
   7    5    1 0.2691 0.1276 0.1277 
   7    5    2 0.2691 0.1277 0.1276 
   6    5    2 0.1553 0.2187 0.2187 
   1    5    3 0.0742 0.0715 0.0715 
   2    5    3 0.0798 0.0394 0.0394 
   2    5    4 0.0798 0.0394 0.0394 
   1    5    4 0.0743 0.0716 0.0716 
   3    5    3 0.0798 0.0394 0.0394 
   4    5    3 0.0743 0.0716 0.0716 
   4    5    4 0.0743 0.0716 0.0716 
   3    5    4 0.0798 0.0394 0.0394 
   5    5    3 0.2691 0.1276 0.1276 
   5    5    3 0.1553 0.2187 0.2187 
   5    5    4 0.1553 0.2187 0.2187 
   5    5    4 0.2691 0.1276 0.1276 
   6    5    3 0.1553 0.2187 0.2187 
   7    5    3 0.2691 0.1276 0.1277 
   7    5    4 0.2691 0.1277 0.1276 
   6    5    4 0.1553 0.2187 0.2187 
   1    5    5 0.0742 0.0715 0.0715 
   2    5    5 0.0798 0.0394 0.0394 
   2    5    5 0.0798 0.0394 0.0394 
   1    5    5 0.0743 0.0716 0.0716 
   3    5    5 0.0798 0.0394 0.0394 
   4    5    5 0.0743 0.0716 0.0716 
   4    5    5 0.0743 0.0716 0.0716 
   3    5    5 0.0798 0.0394 0.0394 
   5    5    5 0.2691 0.1276 0.1276 
   5    5    5 0.1553 0.2187 0.2187 
   5    5    5 0.1553 0.2187 0.2187 
   5    5    5 0.2691 0.1276 0.1276 
   6    5    5 0.1553 0.2187 0.2187 
   7    5    5 0.2691 0.1276 0.1277 
   7    5    5 0.2691 0.1277 0.1276 
   6    5    5 0.1553 0.2187 0.2187 
   1    5    6 0.0742 0.0715 0.0715 
   2    5    6 0.0798 0.0394 0.0394 
   2    5    7 0.0798 0.0394 0.0394 
   1    5    7 0.0743 0.0716 0.0716 
   3    5    6 0.0798 0.0394 0.0394 
   4    5    6 0.0743 0.0716 0.0716 
   4    5    7 0.0743 0.0716 0.0716 
   3    5    7 0.0798 0.0394 0.0394 
   5    5    6 0.2691 0.1276 0.1276 
   5    5    6 0.1553 0.2187 0.2187 
   5    5    7 0.1553 0.2187 0.2187 
   5    5    7 0.2691 0.1276 0.1276 
   6    5    6 0.1553 0.2187 0.2187 
   7    5    6 0.2691 0.1276 0.1277 
   7    5    7 0.2691 0.1277 0.1276 
   6    5    7 0.1553 0.2187 0.2187 
   1    5    8 0.0742 0.0715 0.0715 
   2    5    8 0.0798 0.0394 0.0394 
   2    5    9 0.0798 0.0394 0.0394 
   1    5    9 0.0743 0.0716 0.0716 
   3    5    8 0.0798 0.0394 0.0394 
   4    5    8 0.0743 0.0716 0.0716 
   4    5    9 0.0743 0.0716 0.0716 
   3    5    9 0.0798 0.0394 0.0394 
   5    5    8 0.2691 0.1276 0.1276 
   5    5    8 0.1553 0.2187 0.2187 
   5    5    9 0.1553 0.2187 0.2187 
   5    5    9 0.2691 0.1276 0.1276 
   6    5    8 0.1553 0.2187 0.2187 
   7    5    8 0.2691 0.1276 0.1277 
   7    5    9 0.2691 0.1277 0.1276 
   6    5    9 0.1553 0.2187 0.2187 
   1    5    9 0.0742 0.0715 0.0715 
   2    5    9 0.0798 0.0394 0.0394 
   2    5   10 0.0798 0.0394 0.0394 
   1    5   10 0.0743 0.0716 0.0716 
   3    5    9 0.0798 0.0394 0.0394 
   4    5    9 0.0743 0.0716 0.0716 
   4    5   10 0.0743 0.0716 0.0716 
   3    5   10 0.0798 0.0394 0.0394 
   5    5    9 0.2691 0.1276 0.1276 
   5    5    9 0.1553 0.2187 0.2187 
   5    5   10 0.1553 0.2187 0.2187 
   5    5   10 0.2691 0.1276 0.1276 
   6    5    9 0.1553 0.2187 0.2187 
   7    5    9 0.2691 0.1276 0.1277 
   7    5   10 0.2691 0.1277 0.1276 
   6    5   10 0.1553 0.2187 0.2187 
   1    6    1 0.0742 0.0715 0.0715 
   2    7    1 0.0798 0.0394 0.0394 
   2    6    2 0.0798 0.0394 0.0394 
   1    7    2 0.0743 0.0716 0.0716 
   3    6    1 0.0798 0.0394 0.0394 
   4    7    1 0.0743 0.0716 0.0716 
   4    6    2 0.0743 0.0716 0.0716 
   3    7    2 0.0798 0.0394 0.0394 
   5    6    1 0.2691 0.1276 0.1276 
   5    7    1 0.1553 0.2187 0.2187 
   5    6    2 0.1553 0.2187 0.2187 
   5    7    2 0.2691 0.1276 0.1276 
   6    6    1 0.1553 0.2187 0.2187 
   7    7    1 0.2691 0.1276 0.1277 
   7    6    2 0.2691 0.1277 0.1276 
   6    7    2 0.1553 0.2187 0.2187 
   1    6    3 0.0742 0.0715 0.0715 
   2    7    3 0.0798 0.0394 0.0394 
   2    6    4 0.0798 0.0394 0.0394 
   1    7    4 0.0743 0.0716 0.0716 
   3    6    3 0.0798 0.0394 0.0394 
   4    7    3 0.0743 0.0716 0.0716 
   4    6    4 0.0743 0.0716 0.0716 
   3    7    4 0.0798 0.0394 0.0394 
   5    6    3 0.2691 0.1276 0.1276 
   5    7    3 0.1553 0.2187 0.2187 
   5    6    4 0.1553 0.2187 0.2187 
   5    7    4 0.2691 0.1276 0.1276 
   6    6    3 0.1553 0.2187 0.2187 
   7    7    3 0.2691 0.1276 0.1277 
   7    6    4 0.2691 0.1277 0.1276 
   6    7    4 0.1553 0.2187 0.2187 
   1    6    5 0.0742 0.0715 0.0715 
   2    7    5 0.0798 0.0394 0.0394 
   2    6    5 0.0798 0.0394 0.0394 
   1    7    5 0.0743 0.0716 0.0716 
   3    6    5 0.0798 0.0394 0.0394 
   4    7    5 0.0743 0.0716 0.0716 
   4    6    5 0.0743 0.0716 0.0716 
   3    7    5 0.0798 0.0394 0.0394 
   5    6    5 0.2691 0.1276 0.1276 
   5    7    5 0.1553 0.2187 0.2187 
   5    6    5 0.1553 0.2187 0.2187 
   5    7    5 0.2691 0.1276 0.1276 
   6    6    5 0.1553 0.2187 0.2187 
   7    7    5 0.2691 0.1276 0.1277 
   7    6    5 0.2691 0.1277 0.1276 
   6    7    5 0.1553 0.2187 0.2187 
   1    6    6 0.0742 0.0715 0.0715 
   2    7    6 0.0798 0.0394 0.0394 
   2    6    7 0.0798 0.0394 0.0394 
   1    7    7 0.0743 0.0716 0.0716 
   3    6    6 0.0798 0.0394 0.0394 
   4    7    6 0.0743 0.0716 0.0716 
   4    6    7 0.0743 0.0716 0.0716 
   3    7    7 0.0798 0.0394 0.0394 
   5    6    6 0.2691 0.1276 0.1276 
   5    7    6 0.1553 0.2187 0.2187 
   5    6    7 0.1553 0.2187 0.2187 
   5    7    7 0.2691 0.1276 0.1276 
   6    6    6 0.1553 0.2187 0.2187 
   7    7    6 0.2691 0.1276 0.1277 
   7    6    7 0.2691 0.1277 0.1276 
   6    7    7 0.1553 0.2187 0.2187 
   1    6    8 0.0742 0.0715 0.0715 
   2    7    8 0.0798 0.0394 0.0394 
   2    6    9 0.0798 0.0394 0.0394 
   1    7    9 0.0743 0.0716 0.0716 
   3    6    8 0.0798 0.0394 0.0394 
   4    7    8 0.0743 0.0716 0.0716 
   4    6    9 0.0743 0.0716 0.0716 
   3    7    9 0.0798 0.0394 0.0394 
   5    6    8 0.2691 0.1276 0.1276 
   5    7    8 0.1553 0.2187 0.2187 
   5    6    9 0.1553 0.2187 0.2187 
   5    7    9 0.2691 0.1276 0.1276 
   6    6    8 0.1553 0.2187 0.2187 
   7    7    8 0.2691 0.1276 0.1277 
   7    6    9 0.2691 0.1277 0.1276 
   6    7    9 0.1553 0.2187 0.2187 
   1    6    9 0.0742 0.0715 0.0715 
   2    7    9 0.0798 0.0394 0.0394 
   2    6   10 0.0798 0.0394 0.0394 
   1    7   10 0.0743 0.0716 0.0716 
   3    6    9 0.0798 0.0394 0.0394 
   4    7    9 0.0743 0.0716 0.0716 
   4    6   10 0.0743 0.0716 0.0716 
   3    7   10 0.0798 0.0394 0.0394 
   5    6    9 0.2691 0.1276 0.1276 
   5    7    9 0.1553 0.2187 0.2187 
   5    6   10 0.1553 0.2187 0.2187 
   5    7   10 0.2691 0.1276 0.1276 
   6    6    9 0.1553 0.2187 0.2187 
   7    7    9 0.2691 0.1276 0.1277 
   7    6   10 0.2691 0.1277 0.1276 
   6    7   10 0.1553 0.2187 0.2187 
   1    8    1 0.0742 0.0715 0.0715 
   2    9    1 0.0798 0.0394 0.0394 
   2    8    2 0.0798 0.0394 0.0394 
   1    9    2 0.0743 0.0716 0.0716 
   3    8    1 0.0798 0.0394 0.0394 
   4    9    1 0.0743 0.0716 0.0716 
   4    8    2 0.0743 0.0716 0.0716 
   3    9    2 0.0798 0.0394 0.0394 
   5    8    1 0.2691 0.1276 0.1276 
   5    9    1 0.1553 0.2187 0.2187 
   5    8    2 0.1553 0.2187 0.2187 
   5    9    2 0.2691 0.1276 0.1276 
   6    8    1 0.1553 0.2187 0.2187 
   7    9    1 0.2691 0.1276 0.1277 
   7    8    2 0.2691 0.1277 0.1276 
   6    9    2 0.1553 0.2187 0.2187 
   1    8    3 0.0742 0.0715 0.0715 
   2    9    3 0.0798 0.0394 0.0394 
   2    8    4 0.0798 0.0394 0.0394 
   1    9    4 0.0743 0.0716 0.0716 
   3    8    3 0.0798 0.0394 0.0394 
   4    9    3 0.0743 0.0716 0.0716 
   4    8    4 0.0743 0.0716 0.0716 
   3    9    4 0.0798 0.0394 0.0394 
   5    8    3 0.2691 0.1276 0.1276 
   5    9    3 0.1553 0.2187 0.2187 
   5    8    4 0.1553 0.2187 0.2187 
   5    9    4 0.2691 0.1276 0.1276 
   6    8    3 0.1553 0.2187 0.2187 
   7    9    3 0.2691 0.1276 0.1277 
   7    8    4 0.2691 0.1277 0.1276 
   6    9    4 0.1553 0.2187 0.2187 
   1    8    5 0.0742 0.0715 0.0715 
   2    9    5 0.0798 0.0394 0.0394 
   2    8    5 0.0798 0.0394 0.0394 
   1    9    5 0.0743 0.0716 0.0716 
   3    8    5 0.0798 0.0394 0.0394 
   4    9    5 0.0743 0.0716 0.0716 
   4    8    5 0.0743 0.0716 0.0716 
   3    9    5 0.0798 0.0394 0.0394 
   5    8    5 0.2691 0.1276 0.1276 
   5    9    5 0.1553 0.2187 0.2187 
   5    8    5 0.1553 0.2187 0.2187 
   5    9    5 0.2691 0.1276 0.1276 
   6    8    5 0.1553 0.2187 0.2187 
   7    9    5 0.2691 0.1276 0.1277 
   7    8    5 0.2691 0.1277 0.1276 
   6    9    5 0.1553 0.2187 0.2187 
   1    8    6 0.0742 0.0715 0.0715 
   2    9    6 0.0798 0.0394 0.0394 
   2    8    7 0.0798 0.0394 0.0394 
   1    9    7 0.0743 0.0716 0.0716 
   3    8    6 0.0798 0.0394 0.0394 
   4    9    6 0.0743 0.0716 0.0716 
   4    8    7 0.0743 0.0716 0.0716 
   3    9    7 0.0798 0.0394 0.0394 
   5    8    6 0.2691 0.1276 0.1276 
   5    9    6 0.1553 0.2187 0.2187 
   5    8    7 0.1553 0.2187 0.2187 
   5    9    7 0.2691 0.1276 0.1276 
   6    8    6 0.1553 0.2187 0.2187 
   7    9    6 0.2691 0.1276 0.1277 
   7    8    7 0.2691 0.1277 0.1276 
   6    9    7 0.1553 0.2187 0.2187 
   1    8    8 0.0742 0.0715 0.0715 
   2    9    8 0.0798 0.0394 0.0394 
   2    8    9 0.0798 0.0394 0.0394 
   1    9    9 0.0743 0.0716 0.0716 
   3    8    8 0.0798 0.0394 0.0394 
   4    9    8 0.0743 0.0716 0.0716 
   4    8    9 0.0743 0.0716 0.0716 
   3    9    9 0.0798 0.0394 0.0394 
   5    8    8 0.2691 0.1276 0.1276 
   5    9    8 0.1553 0.2187 0.2187 
   5    8    9 0.1553 0.2187 0.2187 
   5    9    9 0.2691 0.1276 0.1276 
   6    8    8 0.1553 0.2187 0.2187 
   7    9    8 0.2691 0.1276 0.1277 
   7    8    9 0.2691 0.1277 0.1276 
   6    9    9 0.1553 0.2187 0.2187 
   1    8    9 0.0742 0.0715 0.0715 
   2    9    9 0.0798 0.0394 0.0394 
   2    8   10 0.0798 0.0394 0.0394 
   1    9   10 0.0743 0.0716 0.0716 
   3    8    9 0.0798 0.0394 0.0394 
   4    9    9 0.0743 0.0716 0.0716 
   4    8   10 0.0743 0.0716 0.0716 
   3    9   10 0.0798 0.0394 0.0394 
   5    8    9 0.2691 0.1276 0.1276 
   5    9    9 0.1553 0.2187 0.2187 
   5    8   10 0.1553 0.2187 0.2187 
   5    9   10 0.2691 0.1276 0.1276 
   6    8    9 0.1553 0.2187 0.2187 
   7    9    9 0.2691 0.1276 0.1277 
   7    8   10 0.2691 0.1277 0.1276 
   6    9   10 0.1553 0.2187 0.2187 
   1    9    1 0.0742 0.0715 0.0715 
   2   10    1 0.0798 0.0394 0.0394 
   2    9    2 0.0798 0.0394 0.0394 
   1   10    2 0.0743 0.0716 0.0716 
   3    9    1 0.0798 0.0394 0.0394 
   4   10    1 0.0743 0.0716 0.0716 
   4    9    2 0.0743 0.0716 0.0716 
   3   10    2 0.0798 0.0394 0.0394 
   5    9    1 0.2691 0.1276 0.1276 
   5   10    1 0.1553 0.2187 0.2187 
   5    9    2 0.1553 0.2187 0.2187 
   5   10    2 0.2691 0.1276 0.1276 
   6    9    1 0.1553 0.2187 0.2187 
   7   10    1 0.2691 0.1276 0.1277 
   7    9    2 0.2691 0.1277 0.1276 
   6   10    2 0.1553 0.2187 0.2187 
   1    9    3 0.0742 0.0715 0.0715 
   2   10    3 0.0798 0.0394 0.0394 
   2    9    4 0.0798 0.0394 0.0394 
   1   10    4 0.0743 0.0716 0.0716 
   3    9    3 0.0798 0.0394 0.0394 
   4   10    3 0.0743 0.0716 0.0716 
   4    9    4 0.0743 0.0716 0.0716 
   3   10    4 0.0798 0.0394 0.0394 
   5    9    3 0.2691 0.1276 0.1276 
   5   10    3 0.1553 0.2187 0.2187 
   5    9    4 0.1553 0.2187 0.2187 
   5   10    4 0.2691 0.1276 0.1276 
   6    9    3 0.1553 0.2187 0.2187 
   7   10    3 0.2691 0.1276 0.1277 
   7    9    4 0.2691 0.1277 0.1276 
   6   10    4 0.1553 0.2187 0.2187 
   1    9    5 0.0742 0.0715 0.0715 
   2   10    5 0.0798 0.0394 0.0394 
   2    9    5 0.0798 0.0394 0.0394 
   1   10    5 0.0743 0.0716 0.0716 
   3    9    5 0.0798 0.0394 0.0394 
   4   10    5 0.0743 0.0716 0.0716 
   4    9    5 0.0743 0.0716 0.0716 
   3   10    5 0.0798 0.0394 0.0394 
   5    9    5 0.2691 0.1276 0.1276 
   5   10    5 0.1553 0.2187 0.2187 
   5    9    5 0.1553 0.2187 0.2187 
   5   10    5 0.2691 0.1276 0.1276 
   6    9    5 0.1553 0.2187 0.2187 
   7   10    5 0.2691 0.1276 0.1277 
   7    9    5 0.2691 0.1277 0.1276 
   6   10    5 0.1553 0.2187 0.2187 
   1    9    6 0.0742 0.0715 0.0715 
   2   10    6 0.0798 0.0394 0.0394 
   2    9    7 0.0798 0.0394 0.0394 
   1   10    7 0.0743 0.0716 0.0716 
   3    9    6 0.0798 0.0394 0.0394 
   4   10    6 0.0743 0.0716 0.0716 
   4    9    7 0.0743 0.0716 0.0716 
   3   10    7 0.0798 0.0394 0.0394 
   5    9    6 0.2691 0.1276 0.1276 
   5   10    6 0.1553 0.2187 0.2187 
   5    9    7 0.1553 0.2187 0.2187 
   5   10    7 0.2691 0.1276 0.1276 
   6    9    6 0.1553 0.2187 0.2187 
   7   10    6 0.2691 0.1276 0.1277 
   7    9    7 0.2691 0.1277 0.1276 
   6   10    7 0.1553 0.2187 0.2187 
   1    9    8 0.0742 0.0715 0.0715 
   2   10    8 0.0798 0.0394 0.0394 
   2    9    9 0.0798 0.0394 0.0394 
   1   10    9 0.0743 0.0716 0.0716 
   3    9    8 0.0798 0.0394 0.0394 
   4   10    8 0.0743 0.0716 0.0716 
   4    9    9 0.0743 0.0716 0.0716 
   3   10    9 0.0798 0.0394 0.0394 
   5    9    8 0.2691 0.1276 0.1276 
   5   10    8 0.1553 0.2187 0.2187 
   5    9    9 0.1553 0.2187 0.2187 
   5   10    9 0.2691 0.1276 0.1276 
   6    9    8 0.1553 0.2187 0.2187 
   7   10    8 0.2691 0.1276 0.1277 
   7    9    9 0.2691 0.1277 0.1276 
   6   10    9 0.1553 0.2187 0.2187 
   1    9    9 0.0742 0.0715 0.0715 
   2   10    9 0.0798 0.0394 0.0394 
   2    9   10 0.0798 0.0394 0.0394 
   1   10   10 0.0743 0.0716 0.0716 
   3    9    9 0.0798 0.0394 0.0394 
   4   10    9 0.0743 0.0716 0.0716 
   4    9   10 0.0743 0.0716 0.0716 
   3   10   10 0.0798 0.0394 0.0394 
   5    9    9 0.2691 0.1276 0.1276 
   5   10    9 0.1553 0.2187 0.2187 
   5    9   10 0.1553 0.2187 0.2187 
   5   10   10 0.2691 0.1276 0.1276 
   6    9    9 0.1553 0.2187 0.2187 
   7   10    9 0.2691 0.1276 0.1277 
   7    9   10 0.2691 0.1277 0.1276 
   6   10   10 0.1553 0.2187 0.2187 
   8    1    1 0.0742 0.0715 0.0715 
   9    2    1 0.0798 0.0394 0.0394 
   9    1    2 0.0798 0.0394 0.0394 
   8    2    2 0.0743 0.0716 0.0716 
   9    1    1 0.0798 0.0394 0.0394 
  10    2    1 0.0743 0.0716 0.0716 
  10    1    2 0.0743 0.0716 0.0716 
   9    2    2 0.0798 0.0394 0.0394 
  11    1    1 0.2691 0.1276 0.1276 
  12    2    1 0.1553 0.2187 0.2187 
  12    1    2 0.1553 0.2187 0.2187 
  11    2    2 0.2691 0.1276 0.1276 
  12    1    1 0.1553 0.2187 0.2187 
  13    2    1 0.2691 0.1276 0.1277 
  13    1    2 0.2691 0.1277 0.1276 
  12    2    2 0.1553 0.2187 0.2187 
   8    1    3 0.0742 0.0715 0.0715 
   9    2    3 0.0798 0.0394 0.0394 
   9    1    4 0.0798 0.0394 0.0394 
   8    2    4 0.0743 0.0716 0.0716 
   9    1    3 0.0798 0.0394 0.0394 
  10    2    3 0.0743 0.0716 0.0716 
  10    1    4 0.0743 0.0716 0.0716 
   9    2    4 0.0798 0.0394 0.0394 
  11    1    3 0.2691 0.1276 0.1276 
  12    2    3 0.1553 0.2187 0.2187 
  12    1    4 0.1553 0.2187 0.2187 
  11    2    4 0.2691 0.1276 0.1276 
  12    1    3 0.1553 0.2187 0.2187 
  13    2    3 0.2691 0.1276 0.1277 
  13    1    4 0.2691 0.1277 0.1276 
  12    2    4 0.1553 0.2187 0.2187 
   8    1    5 0.0742 0.0715 0.0715 
   9    2    5 0.0798 0.0394 0.0394 
   9    1    5 0.0798 0.0394 0.0394 
   8    2    5 0.0743 0.0716 0.0716 
   9    1    5 0.0798 0.0394 0.0394 
  10    2    5 0.0743 0.0716 0.0716 
  10    1    5 0.0743 0.0716 0.0716 
   9    2    5 0.0798 0.0394 0.0394 
  11    1    5 0.2691 0.1276 0.1276 
  12    2    5 0.1553 0.2187 0.2187 
  12    1    5 0.1553 0.2187 0.2187 
  11    2    5 0.2691 0.1276 0.1276 
  12    1    5 0.1553 0.2187 0.2187 
  13    2    5 0.2691 0.1276 0.1277 
  13    1    5 0.2691 0.1277 0.1276 
  12    2    5 0.1553 0.2187 0.2187 
   8    1    6 0.0742 0.0715 0.0715 
   9    2    6 0.0798 0.0394 0.0394 
   9    1    7 0.0798 0.0394 0.0394 
   8    2    7 0.0743 0.0716 0.0716 
   9    1    6 0.0798 0.0394 0.0394 
  10    2    6 0.0743 0.0716 0.0716 
  10    1    7 0.0743 0.0716 0.0716 
   9    2    7 0.0798 0.0394 0.0394 
  11    1    6 0.2691 0.1276 0.1276 
  12    2    6 0.1553 0.2187 0.2187 
  12    1    7 0.1553 0.2187 0.2187 
  11    2    7 0.2691 0.1276 0.1276 
  12    1    6 0.1553 0.2187 0.2187 
  13    2    6 0.2691 0.1276 0.1277 
  13    1    7 0.2691 0.1277 0.1276 
  12    2    7 0.1553 0.2187 0.2187 
   8    1    8 0.0742 0.0715 0.0715 
   9    2    8 0.0798 0.0394 0.0394 
   9    1    9 0.0798 0.0394 0.0394 
   8    2    9 0.0743 0.0716 0.0716 
   9    1    8 0.0798 0.0394 0.0394 
  10    2    8 0.0743 0.0716 0.0716 
  10    1    9 0.0743 0.0716 0.0716 
   9    2    9 0.0798 0.0394 0.0394 
  11    1    8 0.2691 0.1276 0.1276 
  12    2    8 0.1553 0.2187 0.2187 
  12    1    9 0.1553 0.2187 0.2187 
  11    2    9 0.2691 0.1276 0.1276 
  12    1    8 0.1553 0.2187 0.2187 
  13    2    8 0.2691 0.1276 0.1277 
  13    1    9 0.2691 0.1277 0.1276 
  12    2    9 0.1553 0.2187 0.2187 
   8    1    9 0.0742 0.0715 0.0715 
   9    2    9 0.0798 0.0394 0.0394 
   9    1   10 0.0798 0.0394 0.0394 
   8    2   10 0.0743 0.0716 0.0716 
   9    1    9 0.0798 0.0394 0.0394 
  10    2    9 0.0743 0.0716 0.0716 
  10    1   10 0.0743 0.0716 0.0716 
   9    2   10 0.0798 0.0394 0.0394 
  11    1    9 0.2691 0.1276 0.1276 
  12    2    9 0.1553 0.2187 0.2187 
  12    1   10 0.1553 0.2187 0.2187 
  11    2   10 0.2691 0.1276 0.1276 
  12    1    9 0.1553 0.2187 0.2187 
  13    2    9 0.2691 0.1276 0.1277 
  13    1   10 0.2691 0.1277 0.1276 
  12    2   10 0.1553 0.2187 0.2187 
   8    3    1 0.0742 0.0715 0.0715 
   9    4    1 0.0798 0.0394 0.0394 
   9    3    2 0.0798 0.0394 0.0394 
   8    4    2 0.0743 0.0716 0.0716 
   9    3    1 0.0798 0.0394 0.0394 
  10    4    1 0.0743 0.0716 0.0716 
  10    3    2 0.0743 0.0716 0.0716 
   9    4    2 0.0798 0.0394 0.0394 
  11    3    1 0.2691 0.1276 0.1276 
  12    4    1 0.1553 0.2187 0.2187 
  12    3    2 0.1553 0.2187 0.2187 
  11    4    2 0.2691 0.1276 0.1276 
  12    3    1 0.1553 0.2187 0.2187 
  13    4    1 0.2691 0.1276 0.1277 
  13    3    2 0.2691 0.1277 0.1276 
  12    4    2 0.1553 0.2187 0.2187 
   8    3    3 0.0742 0.0715 0.0715 
   9    4    3 0.0798 0.0394 0.0394 
   9    3    4 0.0798 0.0394 0.0394 
   8    4    4 0.0743 0.0716 0.0716 
   9    3    3 0.0798 0.0394 0.0394 
  10    4    3 0.0743 0.0716 0.0716 
  10    3    4 0.0743 0.0716 0.0716 
   9    4    4 0.0798 0.0394 0.0394 
  11    3    3 0.2691 0.1276 0.1276 
  12    4    3 0.1553 0.2187 0.2187 
  12    3    4 0.1553 0.2187 0.2187 
  11    4    4 0.2691 0.1276 0.1276 
  12    3    3 0.1553 0.2187 0.2187 
  13    4    3 0.2691 0.1276 0.1277 
  13    3    4 0.2691 0.1277 0.1276 
  12    4    4 0.1553 0.2187 0.2187 
   8    3    5 0.0742 0.0715 0.0715 
   9    4    5 0.0798 0.0394 0.0394 
   9    3    5 0.0798 0.0394 0.0394 
   8    4    5 0.0743 0.0716 0.0716 
   9    3    5 0.0798 0.0394 0.0394 
  10    4    5 0.0743 0.0716 0.0716 
  10    3    5 0.0743 0.0716 0.0716 
   9    4    5 0.0798 0.0394 0.0394 
  11    3    5 0.2691 0.1276 0.1276 
  12    4    5 0.1553 0.2187 0.2187 
  12    3    5 0.1553 0.2187 0.2187 
  11    4    5 0.2691 0.1276 0.1276 
  12    3    5 0.1553 0.2187 0.2187 
  13    4    5 0.2691 0.1276 0.1277 
  13    3    5 0.2691 0.1277 0.1276 
  12    4    5 0.1553 0.2187 0.2187 
   8    3    6 0.0742 0.0715 0.0715 
   9    4    6 0.0798 0.0394 0.0394 
   9    3    7 0.0798 0.0394 0.0394 
   8    4    7 0.0743 0.0716 0.0716 
   9    3    6 0.0798 0.0394 0.0394 
  10    4    6 0.0743 0.0716 0.0716 
  10    3    7 0.0743 0.0716 0.0716 
   9    4    7 0.0798 0.0394 0.0394 
  11    3    6 0.2691 0.1276 0.1276 
  12    4    6 0.1553 0.2187 0.2187 
  12    3    7 0.1553 0.2187 0.2187 
  11    4    7 0.2691 0.1276 0.1276 
  12    3    6 0.1553 0.2187 0.2187 
  13    4    6 0.2691 0.1276 0.1277 
  13    3    7 0.2691 0.1277 0.1276 
  12    4    7 0.1553 0.2187 0.2187 
   8    3    8 0.0742 0.0715 0.0715 
   9    4    8 0.0798 0.0394 0.0394 
   9    3    9 0.0798 0.0394 0.0394 
   8    4    9 0.0743 0.0716 0.0716 
   9    3    8 0.0798 0.0394 0.0394 
  10    4    8 0.0743 0.0716 0.0716 
  10    3    9 0.0743 0.0716 0.0716 
   9    4    9 0.0798 0.0394 0.0394 
  11    3    8 0.2691 0.1276 0.1276 
  12    4    8 0.1553 0.2187 0.2187 
  12    3    9 0.1553 0.2187 0.2187 
  11    4    9 0.2691 0.1276 0.1276 
  12    3    8 0.1553 0.2187 0.2187 
  13    4    8 0.2691 0.1276 0.1277 
  13    3    9 0.2691 0.1277 0.1276 
  12    4    9 0.1553 0.2187 0.2187 
   8    3    9 0.0742 0.0715 0.0715 
   9    4    9 0.0798 0.0394 0.0394 
   9    3   10 0.0798 0.0394 0.0394 
   8    4   10 0.0743 0.0716 0.0716 
   9    3    9 0.0798 0.0394 0.0394 
  10    4    9 0.0743 0.0716 0.0716 
  10    3   10 0.0743 0.0716 0.0716 
   9    4   10 0.0798 0.0394 0.0394 
  11    3    9 0.2691 0.1276 0.1276 
  12    4    9 0.1553 0.2187 0.2187 
  12    3   10 0.1553 0.2187 0.2187 
  11    4   10 0.2691 0.1276 0.1276 
  12    3    9 0.1553 0.2187 0.2187 
  13    4    9 0.2691 0.1276 0.1277 
  13    3   10 0.2691 0.1277 0.1276 
  12    4   10 0.1553 0.2187 0.2187 
   8    5    1 0.0742 0.0715 0.0715 
   9    5    1 0.0798 0.0394 0.0394 
   9    5    2 0.0798 0.0394 0.0394 
   8    5    2 0.0743 0.0716 0.0716 
   9    5    1 0.0798 0.0394 0.0394 
  10    5    1 0.0743 0.0716 0.0716 
  10    5    2 0.0743 0.0716 0.0716 
   9    5    2 0.0798 0.0394 0.0394 
  11    5    1 0.2691 0.1276 0.1276 
  12    5    1 0.1553 0.2187 0.2187 
  12    5    2 0.1553 0.2187 0.2187 
  11    5    2 0.2691 0.1276 0.1276 
  12    5    1 0.1553 0.2187 0.2187 
  13    5    1 0.2691 0.1276 0.1277 
  13    5    2 0.2691 0.1277 0.1276 
  12    5    2 0.1553 0.2187 0.2187 
   8    5    3 0.0742 0.0715 0.0715 
   9    5    3 0.0798 0.0394 0.0394 
   9    5    4 0.0798 0.0394 0.0394 
   8    5    4 0.0743 0.0716 0.0716 
   9    5    3 0.0798 0.0394 0.0394 
  10    5    3 0.0743 0.0716 0.0716 
  10    5    4 0.0743 0.0716 0.0716 
   9    5    4 0.0798 0.0394 0.0394 
  11    5    3 0.2691 0.1276 0.1276 
  12    5    3 0.1553 0.2187 0.2187 
  12    5    4 0.1553 0.2187 0.2187 
  11    5    4 0.2691 0.1276 0.1276 
  12    5    3 0.1553 0.2187 0.2187 
  13    5    3 0.2691 0.1276 0.1277 
  13    5    4 0.2691 0.1277 0.1276 
  12    5    4 0.1553 0.2187 0.2187 
   8    5    5 0.0742 0.0715 0.0715 
   9    5    5 0.0798 0.0394 0.0394 
   9    5    5 0.0798 0.0394 0.0394 
   8    5    5 0.0743 0.0716 0.0716 
   9    5    5 0.0798 0.0394 0.0394 
  10    5    5 0.0743 0.0716 0.0716 
  10    5    5 0.0743 0.0716 0.0716 