	
2048 atoms
2 atom types	

0.0 50.48 xlo xhi
0.0 6.31 ylo yhi
0.0 6.31 zlo zhi

#-15.16 0.0 0.0 xy xz yz

Masses

1 1
2 3

Atoms				

1	1	0	0	0
2	1	0.78875	0.78875	0
3	1	0.78875	0	0.78875
4	1	0	0.78875	0.78875
5	1	1.5775	0	0
6	1	2.3662	0.78875	0
7	1	2.3662	0	0.78875
8	1	1.5775	0.78875	0.78875
9	2	3.155	0	0
10	2	3.9437	0.78875	0
11	2	3.9437	0	0.78875
12	2	3.155	0.78875	0.78875
13	2	4.7325	0	0
14	2	5.5212	0.78875	0
15	2	5.5212	0	0.78875
16	2	4.7325	0.78875	0.78875
17	1	0	0	1.5775
18	1	0.78875	0.78875	1.5775
19	1	0.78875	0	2.3662
20	1	0	0.78875	2.3662
21	1	1.5775	0	1.5775
22	1	2.3662	0.78875	1.5775
23	1	2.3662	0	2.3662
24	1	1.5775	0.78875	2.3662
25	2	3.155	0	1.5775
26	2	3.9437	0.78875	1.5775
27	2	3.9437	0	2.3662
28	2	3.155	0.78875	2.3662
29	2	4.7325	0	1.5775
30	2	5.5212	0.78875	1.5775
31	2	5.5212	0	2.3662
32	2	4.7325	0.78875	2.3662
33	1	0	0	3.155
34	1	0.78875	0.78875	3.155
35	1	0.78875	0	3.9437
36	1	0	0.78875	3.9437
37	1	1.5775	0	3.155
38	1	2.3662	0.78875	3.155
39	1	2.3662	0	3.9437
40	1	1.5775	0.78875	3.9437
41	2	3.155	0	3.155
42	2	3.9437	0.78875	3.155
43	2	3.9437	0	3.9437
44	2	3.155	0.78875	3.9437
45	2	4.7325	0	3.155
46	2	5.5212	0.78875	3.155
47	2	5.5212	0	3.9437
48	2	4.7325	0.78875	3.9437
49	1	0	0	4.7325
50	1	0.78875	0.78875	4.7325
51	1	0.78875	0	5.5212
52	1	0	0.78875	5.5212
53	1	1.5775	0	4.7325
54	1	2.3662	0.78875	4.7325
55	1	2.3662	0	5.5212
56	1	1.5775	0.78875	5.5212
57	2	3.155	0	4.7325
58	2	3.9437	0.78875	4.7325
59	2	3.9437	0	5.5212
60	2	3.155	0.78875	5.5212
61	2	4.7325	0	4.7325
62	2	5.5212	0.78875	4.7325
63	2	5.5212	0	5.5212
64	2	4.7325	0.78875	5.5212
65	1	0	1.5775	0
66	1	0.78875	2.3662	0
67	1	0.78875	1.5775	0.78875
68	1	0	2.3662	0.78875
69	1	1.5775	1.5775	0
70	1	2.3662	2.3662	0
71	1	2.3662	1.5775	0.78875
72	1	1.5775	2.3662	0.78875
73	2	3.155	1.5775	0
74	2	3.9437	2.3662	0
75	2	3.9437	1.5775	0.78875
76	2	3.155	2.3662	0.78875
77	2	4.7325	1.5775	0
78	2	5.5212	2.3662	0
79	2	5.5212	1.5775	0.78875
80	2	4.7325	2.3662	0.78875
81	1	0	1.5775	1.5775
82	1	0.78875	2.3662	1.5775
83	1	0.78875	1.5775	2.3662
84	1	0	2.3662	2.3662
85	1	1.5775	1.5775	1.5775
86	1	2.3662	2.3662	1.5775
87	1	2.3662	1.5775	2.3662
88	1	1.5775	2.3662	2.3662
89	2	3.155	1.5775	1.5775
90	2	3.9437	2.3662	1.5775
91	2	3.9437	1.5775	2.3662
92	2	3.155	2.3662	2.3662
93	2	4.7325	1.5775	1.5775
94	2	5.5212	2.3662	1.5775
95	2	5.5212	1.5775	2.3662
96	2	4.7325	2.3662	2.3662
97	1	0	1.5775	3.155
98	1	0.78875	2.3662	3.155
99	1	0.78875	1.5775	3.9437
100	1	0	2.3662	3.9437
101	1	1.5775	1.5775	3.155
102	1	2.3662	2.3662	3.155
103	1	2.3662	1.5775	3.9437
104	1	1.5775	2.3662	3.9437
105	2	3.155	1.5775	3.155
106	2	3.9437	2.3662	3.155
107	2	3.9437	1.5775	3.9437
108	2	3.155	2.3662	3.9437
109	2	4.7325	1.5775	3.155
110	2	5.5212	2.3662	3.155
111	2	5.5212	1.5775	3.9437
112	2	4.7325	2.3662	3.9437
113	1	0	1.5775	4.7325
114	1	0.78875	2.3662	4.7325
115	1	0.78875	1.5775	5.5212
116	1	0	2.3662	5.5212
117	1	1.5775	1.5775	4.7325
118	1	2.3662	2.3662	4.7325
119	1	2.3662	1.5775	5.5212
120	1	1.5775	2.3662	5.5212
121	2	3.155	1.5775	4.7325
122	2	3.9437	2.3662	4.7325
123	2	3.9437	1.5775	5.5212
124	2	3.155	2.3662	5.5212
125	2	4.7325	1.5775	4.7325
126	2	5.5212	2.3662	4.7325
127	2	5.5212	1.5775	5.5212
128	2	4.7325	2.3662	5.5212
129	1	0	3.155	0
130	1	0.78875	3.9437	0
131	1	0.78875	3.155	0.78875
132	1	0	3.9437	0.78875
133	1	1.5775	3.155	0
134	1	2.3662	3.9437	0
135	1	2.3662	3.155	0.78875
136	1	1.5775	3.9437	0.78875
137	2	3.155	3.155	0
138	2	3.9437	3.9437	0
139	2	3.9437	3.155	0.78875
140	2	3.155	3.9437	0.78875
141	2	4.7325	3.155	0
142	2	5.5212	3.9437	0
143	2	5.5212	3.155	0.78875
144	2	4.7325	3.9437	0.78875
145	1	0	3.155	1.5775
146	1	0.78875	3.9437	1.5775
147	1	0.78875	3.155	2.3662
148	1	0	3.9437	2.3662
149	1	1.5775	3.155	1.5775
150	1	2.3662	3.9437	1.5775
151	1	2.3662	3.155	2.3662
152	1	1.5775	3.9437	2.3662
153	2	3.155	3.155	1.5775
154	2	3.9437	3.9437	1.5775
155	2	3.9437	3.155	2.3662
156	2	3.155	3.9437	2.3662
157	2	4.7325	3.155	1.5775
158	2	5.5212	3.9437	1.5775
159	2	5.5212	3.155	2.3662
160	2	4.7325	3.9437	2.3662
161	1	0	3.155	3.155
162	1	0.78875	3.9437	3.155
163	1	0.78875	3.155	3.9437
164	1	0	3.9437	3.9437
165	1	1.5775	3.155	3.155
166	1	2.3662	3.9437	3.155
167	1	2.3662	3.155	3.9437
168	1	1.5775	3.9437	3.9437
169	2	3.155	3.155	3.155
170	2	3.9437	3.9437	3.155
171	2	3.9437	3.155	3.9437
172	2	3.155	3.9437	3.9437
173	2	4.7325	3.155	3.155
174	2	5.5212	3.9437	3.155
175	2	5.5212	3.155	3.9437
176	2	4.7325	3.9437	3.9437
177	1	0	3.155	4.7325
178	1	0.78875	3.9437	4.7325
179	1	0.78875	3.155	5.5212
180	1	0	3.9437	5.5212
181	1	1.5775	3.155	4.7325
182	1	2.3662	3.9437	4.7325
183	1	2.3662	3.155	5.5212
184	1	1.5775	3.9437	5.5212
185	2	3.155	3.155	4.7325
186	2	3.9437	3.9437	4.7325
187	2	3.9437	3.155	5.5212
188	2	3.155	3.9437	5.5212
189	2	4.7325	3.155	4.7325
190	2	5.5212	3.9437	4.7325
191	2	5.5212	3.155	5.5212
192	2	4.7325	3.9437	5.5212
193	1	0	4.7325	0
194	1	0.78875	5.5212	0
195	1	0.78875	4.7325	0.78875
196	1	0	5.5212	0.78875
197	1	1.5775	4.7325	0
198	1	2.3662	5.5212	0
199	1	2.3662	4.7325	0.78875
200	1	1.5775	5.5212	0.78875
201	2	3.155	4.7325	0
202	2	3.9437	5.5212	0
203	2	3.9437	4.7325	0.78875
204	2	3.155	5.5212	0.78875
205	2	4.7325	4.7325	0
206	2	5.5212	5.5212	0
207	2	5.5212	4.7325	0.78875
208	2	4.7325	5.5212	0.78875
209	1	0	4.7325	1.5775
210	1	0.78875	5.5212	1.5775
211	1	0.78875	4.7325	2.3662
212	1	0	5.5212	2.3662
213	1	1.5775	4.7325	1.5775
214	1	2.3662	5.5212	1.5775
215	1	2.3662	4.7325	2.3662
216	1	1.5775	5.5212	2.3662
217	2	3.155	4.7325	1.5775
218	2	3.9437	5.5212	1.5775
219	2	3.9437	4.7325	2.3662
220	2	3.155	5.5212	2.3662
221	2	4.7325	4.7325	1.5775
222	2	5.5212	5.5212	1.5775
223	2	5.5212	4.7325	2.3662
224	2	4.7325	5.5212	2.3662
225	1	0	4.7325	3.155
226	1	0.78875	5.5212	3.155
227	1	0.78875	4.7325	3.9437
228	1	0	5.5212	3.9437
229	1	1.5775	4.7325	3.155
230	1	2.3662	5.5212	3.155
231	1	2.3662	4.7325	3.9437
232	1	1.5775	5.5212	3.9437
233	2	3.155	4.7325	3.155
234	2	3.9437	5.5212	3.155
235	2	3.9437	4.7325	3.9437
236	2	3.155	5.5212	3.9437
237	2	4.7325	4.7325	3.155
238	2	5.5212	5.5212	3.155
239	2	5.5212	4.7325	3.9437
240	2	4.7325	5.5212	3.9437
241	1	0	4.7325	4.7325
242	1	0.78875	5.5212	4.7325
243	1	0.78875	4.7325	5.5212
244	1	0	5.5212	5.5212
245	1	1.5775	4.7325	4.7325
246	1	2.3662	5.5212	4.7325
247	1	2.3662	4.7325	5.5212
248	1	1.5775	5.5212	5.5212
249	2	3.155	4.7325	4.7325
250	2	3.9437	5.5212	4.7325
251	2	3.9437	4.7325	5.5212
252	2	3.155	5.5212	5.5212
253	2	4.7325	4.7325	4.7325
254	2	5.5212	5.5212	4.7325
255	2	5.5212	4.7325	5.5212
256	2	4.7325	5.5212	5.5212
257	1	6.31	0	0
258	1	7.0987	0.78875	0
259	1	7.0987	0	0.78875
260	1	6.31	0.78875	0.78875
261	1	7.8875	0	0
262	1	8.6762	0.78875	0
263	1	8.6762	0	0.78875
264	1	7.8875	0.78875	0.78875
265	2	9.465	0	0
266	2	10.254	0.78875	0
267	2	10.254	0	0.78875
268	2	9.465	0.78875	0.78875
269	2	11.042	0	0
270	2	11.831	0.78875	0
271	2	11.831	0	0.78875
272	2	11.042	0.78875	0.78875
273	1	6.31	0	1.5775
274	1	7.0987	0.78875	1.5775
275	1	7.0987	0	2.3662
276	1	6.31	0.78875	2.3662
277	1	7.8875	0	1.5775
278	1	8.6762	0.78875	1.5775
279	1	8.6762	0	2.3662
280	1	7.8875	0.78875	2.3662
281	2	9.465	0	1.5775
282	2	10.254	0.78875	1.5775
283	2	10.254	0	2.3662
284	2	9.465	0.78875	2.3662
285	2	11.042	0	1.5775
286	2	11.831	0.78875	1.5775
287	2	11.831	0	2.3662
288	2	11.042	0.78875	2.3662
289	1	6.31	0	3.155
290	1	7.0987	0.78875	3.155
291	1	7.0987	0	3.9437
292	1	6.31	0.78875	3.9437
293	1	7.8875	0	3.155
294	1	8.6762	0.78875	3.155
295	1	8.6762	0	3.9437
296	1	7.8875	0.78875	3.9437
297	2	9.465	0	3.155
298	2	10.254	0.78875	3.155
299	2	10.254	0	3.9437
300	2	9.465	0.78875	3.9437
301	2	11.042	0	3.155
302	2	11.831	0.78875	3.155
303	2	11.831	0	3.9437
304	2	11.042	0.78875	3.9437
305	1	6.31	0	4.7325
306	1	7.0987	0.78875	4.7325
307	1	7.0987	0	5.5212
308	1	6.31	0.78875	5.5212
309	1	7.8875	0	4.7325
310	1	8.6762	0.78875	4.7325
311	1	8.6762	0	5.5212
312	1	7.8875	0.78875	5.5212
313	2	9.465	0	4.7325
314	2	10.254	0.78875	4.7325
315	2	10.254	0	5.5212
316	2	9.465	0.78875	5.5212
317	2	11.042	0	4.7325
318	2	11.831	0.78875	4.7325
319	2	11.831	0	5.5212
320	2	11.042	0.78875	5.5212
321	1	6.31	1.5775	0
322	1	7.0987	2.3662	0
323	1	7.0987	1.5775	0.78875
324	1	6.31	2.3662	0.78875
325	1	7.8875	1.5775	0
326	1	8.6762	2.3662	0
327	1	8.6762	1.5775	0.78875
328	1	7.8875	2.3662	0.78875
329	2	9.465	1.5775	0
330	2	10.254	2.3662	0
331	2	10.254	1.5775	0.78875
332	2	9.465	2.3662	0.78875
333	2	11.042	1.5775	0
334	2	11.831	2.3662	0
335	2	11.831	1.5775	0.78875
336	2	11.042	2.3662	0.78875
337	1	6.31	1.5775	1.5775
338	1	7.0987	2.3662	1.5775
339	1	7.0987	1.5775	2.3662
340	1	6.31	2.3662	2.3662
341	1	7.8875	1.5775	1.5775
342	1	8.6762	2.3662	1.5775
343	1	8.6762	1.5775	2.3662
344	1	7.8875	2.3662	2.3662
345	2	9.465	1.5775	1.5775
346	2	10.254	2.3662	1.5775
347	2	10.254	1.5775	2.3662
348	2	9.465	2.3662	2.3662
349	2	11.042	1.5775	1.5775
350	2	11.831	2.3662	1.5775
351	2	11.831	1.5775	2.3662
352	2	11.042	2.3662	2.3662
353	1	6.31	1.5775	3.155
354	1	7.0987	2.3662	3.155
355	1	7.0987	1.5775	3.9437
356	1	6.31	2.3662	3.9437
357	1	7.8875	1.5775	3.155
358	1	8.6762	2.3662	3.155
359	1	8.6762	1.5775	3.9437
360	1	7.8875	2.3662	3.9437
361	2	9.465	1.5775	3.155
362	2	10.254	2.3662	3.155
363	2	10.254	1.5775	3.9437
364	2	9.465	2.3662	3.9437
365	2	11.042	1.5775	3.155
366	2	11.831	2.3662	3.155
367	2	11.831	1.5775	3.9437
368	2	11.042	2.3662	3.9437
369	1	6.31	1.5775	4.7325
370	1	7.0987	2.3662	4.7325
371	1	7.0987	1.5775	5.5212
372	1	6.31	2.3662	5.5212
373	1	7.8875	1.5775	4.7325
374	1	8.6762	2.3662	4.7325
375	1	8.6762	1.5775	5.5212
376	1	7.8875	2.3662	5.5212
377	2	9.465	1.5775	4.7325
378	2	10.254	2.3662	4.7325
379	2	10.254	1.5775	5.5212
380	2	9.465	2.3662	5.5212
381	2	11.042	1.5775	4.7325
382	2	11.831	2.3662	4.7325
383	2	11.831	1.5775	5.5212
384	2	11.042	2.3662	5.5212
385	1	6.31	3.155	0
386	1	7.0987	3.9437	0
387	1	7.0987	3.155	0.78875
388	1	6.31	3.9437	0.78875
389	1	7.8875	3.155	0
390	1	8.6762	3.9437	0
391	1	8.6762	3.155	0.78875
392	1	7.8875	3.9437	0.78875
393	2	9.465	3.155	0
394	2	10.254	3.9437	0
395	2	10.254	3.155	0.78875
396	2	9.465	3.9437	0.78875
397	2	11.042	3.155	0
398	2	11.831	3.9437	0
399	2	11.831	3.155	0.78875
400	2	11.042	3.9437	0.78875
401	1	6.31	3.155	1.5775
402	1	7.0987	3.9437	1.5775
403	1	7.0987	3.155	2.3662
404	1	6.31	3.9437	2.3662
405	1	7.8875	3.155	1.5775
406	1	8.6762	3.9437	1.5775
407	1	8.6762	3.155	2.3662
408	1	7.8875	3.9437	2.3662
409	2	9.465	3.155	1.5775
410	2	10.254	3.9437	1.5775
411	2	10.254	3.155	2.3662
412	2	9.465	3.9437	2.3662
413	2	11.042	3.155	1.5775
414	2	11.831	3.9437	1.5775
415	2	11.831	3.155	2.3662
416	2	11.042	3.9437	2.3662
417	1	6.31	3.155	3.155
418	1	7.0987	3.9437	3.155
419	1	7.0987	3.155	3.9437
420	1	6.31	3.9437	3.9437
421	1	7.8875	3.155	3.155
422	1	8.6762	3.9437	3.155
423	1	8.6762	3.155	3.9437
424	1	7.8875	3.9437	3.9437
425	2	9.465	3.155	3.155
426	2	10.254	3.9437	3.155
427	2	10.254	3.155	3.9437
428	2	9.465	3.9437	3.9437
429	2	11.042	3.155	3.155
430	2	11.831	3.9437	3.155
431	2	11.831	3.155	3.9437
432	2	11.042	3.9437	3.9437
433	1	6.31	3.155	4.7325
434	1	7.0987	3.9437	4.7325
435	1	7.0987	3.155	5.5212
436	1	6.31	3.9437	5.5212
437	1	7.8875	3.155	4.7325
438	1	8.6762	3.9437	4.7325
439	1	8.6762	3.155	5.5212
440	1	7.8875	3.9437	5.5212
441	2	9.465	3.155	4.7325
442	2	10.254	3.9437	4.7325
443	2	10.254	3.155	5.5212
444	2	9.465	3.9437	5.5212
445	2	11.042	3.155	4.7325
446	2	11.831	3.9437	4.7325
447	2	11.831	3.155	5.5212
448	2	11.042	3.9437	5.5212
449	1	6.31	4.7325	0
450	1	7.0987	5.5212	0
451	1	7.0987	4.7325	0.78875
452	1	6.31	5.5212	0.78875
453	1	7.8875	4.7325	0
454	1	8.6762	5.5212	0
455	1	8.6762	4.7325	0.78875
456	1	7.8875	5.5212	0.78875
457	2	9.465	4.7325	0
458	2	10.254	5.5212	0
459	2	10.254	4.7325	0.78875
460	2	9.465	5.5212	0.78875
461	2	11.042	4.7325	0
462	2	11.831	5.5212	0
463	2	11.831	4.7325	0.78875
464	2	11.042	5.5212	0.78875
465	1	6.31	4.7325	1.5775
466	1	7.0987	5.5212	1.5775
467	1	7.0987	4.7325	2.3662
468	1	6.31	5.5212	2.3662
469	1	7.8875	4.7325	1.5775
470	1	8.6762	5.5212	1.5775
471	1	8.6762	4.7325	2.3662
472	1	7.8875	5.5212	2.3662
473	2	9.465	4.7325	1.5775
474	2	10.254	5.5212	1.5775
475	2	10.254	4.7325	2.3662
476	2	9.465	5.5212	2.3662
477	2	11.042	4.7325	1.5775
478	2	11.831	5.5212	1.5775
479	2	11.831	4.7325	2.3662
480	2	11.042	5.5212	2.3662
481	1	6.31	4.7325	3.155
482	1	7.0987	5.5212	3.155
483	1	7.0987	4.7325	3.9437
484	1	6.31	5.5212	3.9437
485	1	7.8875	4.7325	3.155
486	1	8.6762	5.5212	3.155
487	1	8.6762	4.7325	3.9437
488	1	7.8875	5.5212	3.9437
489	2	9.465	4.7325	3.155
490	2	10.254	5.5212	3.155
491	2	10.254	4.7325	3.9437
492	2	9.465	5.5212	3.9437
493	2	11.042	4.7325	3.155
494	2	11.831	5.5212	3.155
495	2	11.831	4.7325	3.9437
496	2	11.042	5.5212	3.9437
497	1	6.31	4.7325	4.7325
498	1	7.0987	5.5212	4.7325
499	1	7.0987	4.7325	5.5212
500	1	6.31	5.5212	5.5212
501	1	7.8875	4.7325	4.7325
502	1	8.6762	5.5212	4.7325
503	1	8.6762	4.7325	5.5212
504	1	7.8875	5.5212	5.5212
505	2	9.465	4.7325	4.7325
506	2	10.254	5.5212	4.7325
507	2	10.254	4.7325	5.5212
508	2	9.465	5.5212	5.5212
509	2	11.042	4.7325	4.7325
510	2	11.831	5.5212	4.7325
511	2	11.831	4.7325	5.5212
512	2	11.042	5.5212	5.5212
513	1	12.62	0	0
514	1	13.409	0.78875	0
515	1	13.409	0	0.78875
516	1	12.62	0.78875	0.78875
517	1	14.197	0	0
518	1	14.986	0.78875	0
519	1	14.986	0	0.78875
520	1	14.197	0.78875	0.78875
521	2	15.775	0	0
522	2	16.564	0.78875	0
523	2	16.564	0	0.78875
524	2	15.775	0.78875	0.78875
525	2	17.352	0	0
526	2	18.141	0.78875	0
527	2	18.141	0	0.78875
528	2	17.352	0.78875	0.78875
529	1	12.62	0	1.5775
530	1	13.409	0.78875	1.5775
531	1	13.409	0	2.3662
532	1	12.62	0.78875	2.3662
533	1	14.197	0	1.5775
534	1	14.986	0.78875	1.5775
535	1	14.986	0	2.3662
536	1	14.197	0.78875	2.3662
537	2	15.775	0	1.5775
538	2	16.564	0.78875	1.5775
539	2	16.564	0	2.3662
540	2	15.775	0.78875	2.3662
541	2	17.352	0	1.5775
542	2	18.141	0.78875	1.5775
543	2	18.141	0	2.3662
544	2	17.352	0.78875	2.3662
545	1	12.62	0	3.155
546	1	13.409	0.78875	3.155
547	1	13.409	0	3.9437
548	1	12.62	0.78875	3.9437
549	1	14.197	0	3.155
550	1	14.986	0.78875	3.155
551	1	14.986	0	3.9437
552	1	14.197	0.78875	3.9437
553	2	15.775	0	3.155
554	2	16.564	0.78875	3.155
555	2	16.564	0	3.9437
556	2	15.775	0.78875	3.9437
557	2	17.352	0	3.155
558	2	18.141	0.78875	3.155
559	2	18.141	0	3.9437
560	2	17.352	0.78875	3.9437
561	1	12.62	0	4.7325
562	1	13.409	0.78875	4.7325
563	1	13.409	0	5.5212
564	1	12.62	0.78875	5.5212
565	1	14.197	0	4.7325
566	1	14.986	0.78875	4.7325
567	1	14.986	0	5.5212
568	1	14.197	0.78875	5.5212
569	2	15.775	0	4.7325
570	2	16.564	0.78875	4.7325
571	2	16.564	0	5.5212
572	2	15.775	0.78875	5.5212
573	2	17.352	0	4.7325
574	2	18.141	0.78875	4.7325
575	2	18.141	0	5.5212
576	2	17.352	0.78875	5.5212
577	1	12.62	1.5775	0
578	1	13.409	2.3662	0
579	1	13.409	1.5775	0.78875
580	1	12.62	2.3662	0.78875
581	1	14.197	1.5775	0
582	1	14.986	2.3662	0
583	1	14.986	1.5775	0.78875
584	1	14.197	2.3662	0.78875
585	2	15.775	1.5775	0
586	2	16.564	2.3662	0
587	2	16.564	1.5775	0.78875
588	2	15.775	2.3662	0.78875
589	2	17.352	1.5775	0
590	2	18.141	2.3662	0
591	2	18.141	1.5775	0.78875
592	2	17.352	2.3662	0.78875
593	1	12.62	1.5775	1.5775
594	1	13.409	2.3662	1.5775
595	1	13.409	1.5775	2.3662
596	1	12.62	2.3662	2.3662
597	1	14.197	1.5775	1.5775
598	1	14.986	2.3662	1.5775
599	1	14.986	1.5775	2.3662
600	1	14.197	2.3662	2.3662
601	2	15.775	1.5775	1.5775
602	2	16.564	2.3662	1.5775
603	2	16.564	1.5775	2.3662
604	2	15.775	2.3662	2.3662
605	2	17.352	1.5775	1.5775
606	2	18.141	2.3662	1.5775
607	2	18.141	1.5775	2.3662
608	2	17.352	2.3662	2.3662
609	1	12.62	1.5775	3.155
610	1	13.409	2.3662	3.155
611	1	13.409	1.5775	3.9437
612	1	12.62	2.3662	3.9437
613	1	14.197	1.5775	3.155
614	1	14.986	2.3662	3.155
615	1	14.986	1.5775	3.9437
616	1	14.197	2.3662	3.9437
617	2	15.775	1.5775	3.155
618	2	16.564	2.3662	3.155
619	2	16.564	1.5775	3.9437
620	2	15.775	2.3662	3.9437
621	2	17.352	1.5775	3.155
622	2	18.141	2.3662	3.155
623	2	18.141	1.5775	3.9437
624	2	17.352	2.3662	3.9437
625	1	12.62	1.5775	4.7325
626	1	13.409	2.3662	4.7325
627	1	13.409	1.5775	5.5212
628	1	12.62	2.3662	5.5212
629	1	14.197	1.5775	4.7325
630	1	14.986	2.3662	4.7325
631	1	14.986	1.5775	5.5212
632	1	14.197	2.3662	5.5212
633	2	15.775	1.5775	4.7325
634	2	16.564	2.3662	4.7325
635	2	16.564	1.5775	5.5212
636	2	15.775	2.3662	5.5212
637	2	17.352	1.5775	4.7325
638	2	18.141	2.3662	4.7325
639	2	18.141	1.5775	5.5212
640	2	17.352	2.3662	5.5212
641	1	12.62	3.155	0
642	1	13.409	3.9437	0
643	1	13.409	3.155	0.78875
644	1	12.62	3.9437	0.78875
645	1	14.197	3.155	0
646	1	14.986	3.9437	0
647	1	14.986	3.155	0.78875
648	1	14.197	3.9437	0.78875
649	2	15.775	3.155	0
650	2	16.564	3.9437	0
651	2	16.564	3.155	0.78875
652	2	15.775	3.9437	0.78875
653	2	17.352	3.155	0
654	2	18.141	3.9437	0
655	2	18.141	3.155	0.78875
656	2	17.352	3.9437	0.78875
657	1	12.62	3.155	1.5775
658	1	13.409	3.9437	1.5775
659	1	13.409	3.155	2.3662
660	1	12.62	3.9437	2.3662
661	1	14.197	3.155	1.5775
662	1	14.986	3.9437	1.5775
663	1	14.986	3.155	2.3662
664	1	14.197	3.9437	2.3662
665	2	15.775	3.155	1.5775
666	2	16.564	3.9437	1.5775
667	2	16.564	3.155	2.3662
668	2	15.775	3.9437	2.3662
669	2	17.352	3.155	1.5775
670	2	18.141	3.9437	1.5775
671	2	18.141	3.155	2.3662
672	2	17.352	3.9437	2.3662
673	1	12.62	3.155	3.155
674	1	13.409	3.9437	3.155
675	1	13.409	3.155	3.9437
676	1	12.62	3.9437	3.9437
677	1	14.197	3.155	3.155
678	1	14.986	3.9437	3.155
679	1	14.986	3.155	3.9437
680	1	14.197	3.9437	3.9437
681	2	15.775	3.155	3.155
682	2	16.564	3.9437	3.155
683	2	16.564	3.155	3.9437
684	2	15.775	3.9437	3.9437
685	2	17.352	3.155	3.155
686	2	18.141	3.9437	3.155
687	2	18.141	3.155	3.9437
688	2	17.352	3.9437	3.9437
689	1	12.62	3.155	4.7325
690	1	13.409	3.9437	4.7325
691	1	13.409	3.155	5.5212
692	1	12.62	3.9437	5.5212
693	1	14.197	3.155	4.7325
694	1	14.986	3.9437	4.7325
695	1	14.986	3.155	5.5212
696	1	14.197	3.9437	5.5212
697	2	15.775	3.155	4.7325
698	2	16.564	3.9437	4.7325
699	2	16.564	3.155	5.5212
700	2	15.775	3.9437	5.5212
701	2	17.352	3.155	4.7325
702	2	18.141	3.9437	4.7325
703	2	18.141	3.155	5.5212
704	2	17.352	3.9437	5.5212
705	1	12.62	4.7325	0
706	1	13.409	5.5212	0
707	1	13.409	4.7325	0.78875
708	1	12.62	5.5212	0.78875
709	1	14.197	4.7325	0
710	1	14.986	5.5212	0
711	1	14.986	4.7325	0.78875
712	1	14.197	5.5212	0.78875
713	2	15.775	4.7325	0
714	2	16.564	5.5212	0
715	2	16.564	4.7325	0.78875
716	2	15.775	5.5212	0.78875
717	2	17.352	4.7325	0
718	2	18.141	5.5212	0
719	2	18.141	4.7325	0.78875
720	2	17.352	5.5212	0.78875
721	1	12.62	4.7325	1.5775
722	1	13.409	5.5212	1.5775
723	1	13.409	4.7325	2.3662
724	1	12.62	5.5212	2.3662
725	1	14.197	4.7325	1.5775
726	1	14.986	5.5212	1.5775
727	1	14.986	4.7325	2.3662
728	1	14.197	5.5212	2.3662
729	2	15.775	4.7325	1.5775
730	2	16.564	5.5212	1.5775
731	2	16.564	4.7325	2.3662
732	2	15.775	5.5212	2.3662
733	2	17.352	4.7325	1.5775
734	2	18.141	5.5212	1.5775
735	2	18.141	4.7325	2.3662
736	2	17.352	5.5212	2.3662
737	1	12.62	4.7325	3.155
738	1	13.409	5.5212	3.155
739	1	13.409	4.7325	3.9437
740	1	12.62	5.5212	3.9437
741	1	14.197	4.7325	3.155
742	1	14.986	5.5212	3.155
743	1	14.986	4.7325	3.9437
744	1	14.197	5.5212	3.9437
745	2	15.775	4.7325	3.155
746	2	16.564	5.5212	3.155
747	2	16.564	4.7325	3.9437
748	2	15.775	5.5212	3.9437
749	2	17.352	4.7325	3.155
750	2	18.141	5.5212	3.155
751	2	18.141	4.7325	3.9437
752	2	17.352	5.5212	3.9437
753	1	12.62	4.7325	4.7325
754	1	13.409	5.5212	4.7325
755	1	13.409	4.7325	5.5212
756	1	12.62	5.5212	5.5212
757	1	14.197	4.7325	4.7325
758	1	14.986	5.5212	4.7325
759	1	14.986	4.7325	5.5212
760	1	14.197	5.5212	5.5212
761	2	15.775	4.7325	4.7325
762	2	16.564	5.5212	4.7325
763	2	16.564	4.7325	5.5212
764	2	15.775	5.5212	5.5212
765	2	17.352	4.7325	4.7325
766	2	18.141	5.5212	4.7325
767	2	18.141	4.7325	5.5212
768	2	17.352	5.5212	5.5212
769	1	18.93	0	0
770	1	19.719	0.78875	0
771	1	19.719	0	0.78875
772	1	18.93	0.78875	0.78875
773	1	20.508	0	0
774	1	21.296	0.78875	0
775	1	21.296	0	0.78875
776	1	20.508	0.78875	0.78875
777	2	22.085	0	0
778	2	22.874	0.78875	0
779	2	22.874	0	0.78875
780	2	22.085	0.78875	0.78875
781	2	23.662	0	0
782	2	24.451	0.78875	0
783	2	24.451	0	0.78875
784	2	23.662	0.78875	0.78875
785	1	18.93	0	1.5775
786	1	19.719	0.78875	1.5775
787	1	19.719	0	2.3662
788	1	18.93	0.78875	2.3662
789	1	20.508	0	1.5775
790	1	21.296	0.78875	1.5775
791	1	21.296	0	2.3662
792	1	20.508	0.78875	2.3662
793	2	22.085	0	1.5775
794	2	22.874	0.78875	1.5775
795	2	22.874	0	2.3662
796	2	22.085	0.78875	2.3662
797	2	23.662	0	1.5775
798	2	24.451	0.78875	1.5775
799	2	24.451	0	2.3662
800	2	23.662	0.78875	2.3662
801	1	18.93	0	3.155
802	1	19.719	0.78875	3.155
803	1	19.719	0	3.9437
804	1	18.93	0.78875	3.9437
805	1	20.508	0	3.155
806	1	21.296	0.78875	3.155
807	1	21.296	0	3.9437
808	1	20.508	0.78875	3.9437
809	2	22.085	0	3.155
810	2	22.874	0.78875	3.155
811	2	22.874	0	3.9437
812	2	22.085	0.78875	3.9437
813	2	23.662	0	3.155
814	2	24.451	0.78875	3.155
815	2	24.451	0	3.9437
816	2	23.662	0.78875	3.9437
817	1	18.93	0	4.7325
818	1	19.719	0.78875	4.7325
819	1	19.719	0	5.5212
820	1	18.93	0.78875	5.5212
821	1	20.508	0	4.7325
822	1	21.296	0.78875	4.7325
823	1	21.296	0	5.5212
824	1	20.508	0.78875	5.5212
825	2	22.085	0	4.7325
826	2	22.874	0.78875	4.7325
827	2	22.874	0	5.5212
828	2	22.085	0.78875	5.5212
829	2	23.662	0	4.7325
830	2	24.451	0.78875	4.7325
831	2	24.451	0	5.5212
832	2	23.662	0.78875	5.5212
833	1	18.93	1.5775	0
834	1	19.719	2.3662	0
835	1	19.719	1.5775	0.78875
836	1	18.93	2.3662	0.78875
837	1	20.508	1.5775	0
838	1	21.296	2.3662	0
839	1	21.296	1.5775	0.78875
840	1	20.508	2.3662	0.78875
841	2	22.085	1.5775	0
842	2	22.874	2.3662	0
843	2	22.874	1.5775	0.78875
844	2	22.085	2.3662	0.78875
845	2	23.662	1.5775	0
846	2	24.451	2.3662	0
847	2	24.451	1.5775	0.78875
848	2	23.662	2.3662	0.78875
849	1	18.93	1.5775	1.5775
850	1	19.719	2.3662	1.5775
851	1	19.719	1.5775	2.3662
852	1	18.93	2.3662	2.3662
853	1	20.508	1.5775	1.5775
854	1	21.296	2.3662	1.5775
855	1	21.296	1.5775	2.3662
856	1	20.508	2.3662	2.3662
857	2	22.085	1.5775	1.5775
858	2	22.874	2.3662	1.5775
859	2	22.874	1.5775	2.3662
860	2	22.085	2.3662	2.3662
861	2	23.662	1.5775	1.5775
862	2	24.451	2.3662	1.5775
863	2	24.451	1.5775	2.3662
864	2	23.662	2.3662	2.3662
865	1	18.93	1.5775	3.155
866	1	19.719	2.3662	3.155
867	1	19.719	1.5775	3.9437
868	1	18.93	2.3662	3.9437
869	1	20.508	1.5775	3.155
870	1	21.296	2.3662	3.155
871	1	21.296	1.5775	3.9437
872	1	20.508	2.3662	3.9437
873	2	22.085	1.5775	3.155
874	2	22.874	2.3662	3.155
875	2	22.874	1.5775	3.9437
876	2	22.085	2.3662	3.9437
877	2	23.662	1.5775	3.155
878	2	24.451	2.3662	3.155
879	2	24.451	1.5775	3.9437
880	2	23.662	2.3662	3.9437
881	1	18.93	1.5775	4.7325
882	1	19.719	2.3662	4.7325
883	1	19.719	1.5775	5.5212
884	1	18.93	2.3662	5.5212
885	1	20.508	1.5775	4.7325
886	1	21.296	2.3662	4.7325
887	1	21.296	1.5775	5.5212
888	1	20.508	2.3662	5.5212
889	2	22.085	1.5775	4.7325
890	2	22.874	2.3662	4.7325
891	2	22.874	1.5775	5.5212
892	2	22.085	2.3662	5.5212
893	2	23.662	1.5775	4.7325
894	2	24.451	2.3662	4.7325
895	2	24.451	1.5775	5.5212
896	2	23.662	2.3662	5.5212
897	1	18.93	3.155	0
898	1	19.719	3.9437	0
899	1	19.719	3.155	0.78875
900	1	18.93	3.9437	0.78875
901	1	20.508	3.155	0
902	1	21.296	3.9437	0
903	1	21.296	3.155	0.78875
904	1	20.508	3.9437	0.78875
905	2	22.085	3.155	0
906	2	22.874	3.9437	0
907	2	22.874	3.155	0.78875
908	2	22.085	3.9437	0.78875
909	2	23.662	3.155	0
910	2	24.451	3.9437	0
911	2	24.451	3.155	0.78875
912	2	23.662	3.9437	0.78875
913	1	18.93	3.155	1.5775
914	1	19.719	3.9437	1.5775
915	1	19.719	3.155	2.3662
916	1	18.93	3.9437	2.3662
917	1	20.508	3.155	1.5775
918	1	21.296	3.9437	1.5775
919	1	21.296	3.155	2.3662
920	1	20.508	3.9437	2.3662
921	2	22.085	3.155	1.5775
922	2	22.874	3.9437	1.5775
923	2	22.874	3.155	2.3662
924	2	22.085	3.9437	2.3662
925	2	23.662	3.155	1.5775
926	2	24.451	3.9437	1.5775
927	2	24.451	3.155	2.3662
928	2	23.662	3.9437	2.3662
929	1	18.93	3.155	3.155
930	1	19.719	3.9437	3.155
931	1	19.719	3.155	3.9437
932	1	18.93	3.9437	3.9437
933	1	20.508	3.155	3.155
934	1	21.296	3.9437	3.155
935	1	21.296	3.155	3.9437
936	1	20.508	3.9437	3.9437
937	2	22.085	3.155	3.155
938	2	22.874	3.9437	3.155
939	2	22.874	3.155	3.9437
940	2	22.085	3.9437	3.9437
941	2	23.662	3.155	3.155
942	2	24.451	3.9437	3.155
943	2	24.451	3.155	3.9437
944	2	23.662	3.9437	3.9437
945	1	18.93	3.155	4.7325
946	1	19.719	3.9437	4.7325
947	1	19.719	3.155	5.5212
948	1	18.93	3.9437	5.5212
949	1	20.508	3.155	4.7325
950	1	21.296	3.9437	4.7325
951	1	21.296	3.155	5.5212
952	1	20.508	3.9437	5.5212
953	2	22.085	3.155	4.7325
954	2	22.874	3.9437	4.7325
955	2	22.874	3.155	5.5212
956	2	22.085	3.9437	5.5212
957	2	23.662	3.155	4.7325
958	2	24.451	3.9437	4.7325
959	2	24.451	3.155	5.5212
960	2	23.662	3.9437	5.5212
961	1	18.93	4.7325	0
962	1	19.719	5.5212	0
963	1	19.719	4.7325	0.78875
964	1	18.93	5.5212	0.78875
965	1	20.508	4.7325	0
966	1	21.296	5.5212	0
967	1	21.296	4.7325	0.78875
968	1	20.508	5.5212	0.78875
969	2	22.085	4.7325	0
970	2	22.874	5.5212	0
971	2	22.874	4.7325	0.78875
972	2	22.085	5.5212	0.78875
973	2	23.662	4.7325	0
974	2	24.451	5.5212	0
975	2	24.451	4.7325	0.78875
976	2	23.662	5.5212	0.78875
977	1	18.93	4.7325	1.5775
978	1	19.719	5.5212	1.5775
979	1	19.719	4.7325	2.3662
980	1	18.93	5.5212	2.3662
981	1	20.508	4.7325	1.5775
982	1	21.296	5.5212	1.5775
983	1	21.296	4.7325	2.3662
984	1	20.508	5.5212	2.3662
985	2	22.085	4.7325	1.5775
986	2	22.874	5.5212	1.5775
987	2	22.874	4.7325	2.3662
988	2	22.085	5.5212	2.3662
989	2	23.662	4.7325	1.5775
990	2	24.451	5.5212	1.5775
991	2	24.451	4.7325	2.3662
992	2	23.662	5.5212	2.3662
993	1	18.93	4.7325	3.155
994	1	19.719	5.5212	3.155
995	1	19.719	4.7325	3.9437
996	1	18.93	5.5212	3.9437
997	1	20.508	4.7325	3.155
998	1	21.296	5.5212	3.155
999	1	21.296	4.7325	3.9437
1000	1	20.508	5.5212	3.9437
1001	2	22.085	4.7325	3.155
1002	2	22.874	5.5212	3.155
1003	2	22.874	4.7325	3.9437
1004	2	22.085	5.5212	3.9437
1005	2	23.662	4.7325	3.155
1006	2	24.451	5.5212	3.155
1007	2	24.451	4.7325	3.9437
1008	2	23.662	5.5212	3.9437
1009	1	18.93	4.7325	4.7325
1010	1	19.719	5.5212	4.7325
1011	1	19.719	4.7325	5.5212
1012	1	18.93	5.5212	5.5212
1013	1	20.508	4.7325	4.7325
1014	1	21.296	5.5212	4.7325
1015	1	21.296	4.7325	5.5212
1016	1	20.508	5.5212	5.5212
1017	2	22.085	4.7325	4.7325
1018	2	22.874	5.5212	4.7325
1019	2	22.874	4.7325	5.5212
1020	2	22.085	5.5212	5.5212
1021	2	23.662	4.7325	4.7325
1022	2	24.451	5.5212	4.7325
1023	2	24.451	4.7325	5.5212
1024	2	23.662	5.5212	5.5212
1025	1	25.24	0	0
1026	1	26.029	0.78875	0
1027	1	26.029	0	0.78875
1028	1	25.24	0.78875	0.78875
1029	1	26.817	0	0
1030	1	27.606	0.78875	0
1031	1	27.606	0	0.78875
1032	1	26.817	0.78875	0.78875
1033	2	28.395	0	0
1034	2	29.184	0.78875	0
1035	2	29.184	0	0.78875
1036	2	28.395	0.78875	0.78875
1037	2	29.972	0	0
1038	2	30.761	0.78875	0
1039	2	30.761	0	0.78875
1040	2	29.972	0.78875	0.78875
1041	1	25.24	0	1.5775
1042	1	26.029	0.78875	1.5775
1043	1	26.029	0	2.3662
1044	1	25.24	0.78875	2.3662
1045	1	26.817	0	1.5775
1046	1	27.606	0.78875	1.5775
1047	1	27.606	0	2.3662
1048	1	26.817	0.78875	2.3662
1049	2	28.395	0	1.5775
1050	2	29.184	0.78875	1.5775
1051	2	29.184	0	2.3662
1052	2	28.395	0.78875	2.3662
1053	2	29.972	0	1.5775
1054	2	30.761	0.78875	1.5775
1055	2	30.761	0	2.3662
1056	2	29.972	0.78875	2.3662
1057	1	25.24	0	3.155
1058	1	26.029	0.78875	3.155
1059	1	26.029	0	3.9437
1060	1	25.24	0.78875	3.9437
1061	1	26.817	0	3.155
1062	1	27.606	0.78875	3.155
1063	1	27.606	0	3.9437
1064	1	26.817	0.78875	3.9437
1065	2	28.395	0	3.155
1066	2	29.184	0.78875	3.155
1067	2	29.184	0	3.9437
1068	2	28.395	0.78875	3.9437
1069	2	29.972	0	3.155
1070	2	30.761	0.78875	3.155
1071	2	30.761	0	3.9437
1072	2	29.972	0.78875	3.9437
1073	1	25.24	0	4.7325
1074	1	26.029	0.78875	4.7325
1075	1	26.029	0	5.5212
1076	1	25.24	0.78875	5.5212
1077	1	26.817	0	4.7325
1078	1	27.606	0.78875	4.7325
1079	1	27.606	0	5.5212
1080	1	26.817	0.78875	5.5212
1081	2	28.395	0	4.7325
1082	2	29.184	0.78875	4.7325
1083	2	29.184	0	5.5212
1084	2	28.395	0.78875	5.5212
1085	2	29.972	0	4.7325
1086	2	30.761	0.78875	4.7325
1087	2	30.761	0	5.5212
1088	2	29.972	0.78875	5.5212
1089	1	25.24	1.5775	0
1090	1	26.029	2.3662	0
1091	1	26.029	1.5775	0.78875
1092	1	25.24	2.3662	0.78875
1093	1	26.817	1.5775	0
1094	1	27.606	2.3662	0
1095	1	27.606	1.5775	0.78875
1096	1	26.817	2.3662	0.78875
1097	2	28.395	1.5775	0
1098	2	29.184	2.3662	0
1099	2	29.184	1.5775	0.78875
1100	2	28.395	2.3662	0.78875
1101	2	29.972	1.5775	0
1102	2	30.761	2.3662	0
1103	2	30.761	1.5775	0.78875
1104	2	29.972	2.3662	0.78875
1105	1	25.24	1.5775	1.5775
1106	1	26.029	2.3662	1.5775
1107	1	26.029	1.5775	2.3662
1108	1	25.24	2.3662	2.3662
1109	1	26.817	1.5775	1.5775
1110	1	27.606	2.3662	1.5775
1111	1	27.606	1.5775	2.3662
1112	1	26.817	2.3662	2.3662
1113	2	28.395	1.5775	1.5775
1114	2	29.184	2.3662	1.5775
1115	2	29.184	1.5775	2.3662
1116	2	28.395	2.3662	2.3662
1117	2	29.972	1.5775	1.5775
1118	2	30.761	2.3662	1.5775
1119	2	30.761	1.5775	2.3662
1120	2	29.972	2.3662	2.3662
1121	1	25.24	1.5775	3.155
1122	1	26.029	2.3662	3.155
1123	1	26.029	1.5775	3.9437
1124	1	25.24	2.3662	3.9437
1125	1	26.817	1.5775	3.155
1126	1	27.606	2.3662	3.155
1127	1	27.606	1.5775	3.9437
1128	1	26.817	2.3662	3.9437
1129	2	28.395	1.5775	3.155
1130	2	29.184	2.3662	3.155
1131	2	29.184	1.5775	3.9437
1132	2	28.395	2.3662	3.9437
1133	2	29.972	1.5775	3.155
1134	2	30.761	2.3662	3.155
1135	2	30.761	1.5775	3.9437
1136	2	29.972	2.3662	3.9437
1137	1	25.24	1.5775	4.7325
1138	1	26.029	2.3662	4.7325
1139	1	26.029	1.5775	5.5212
1140	1	25.24	2.3662	5.5212
1141	1	26.817	1.5775	4.7325
1142	1	27.606	2.3662	4.7325
1143	1	27.606	1.5775	5.5212
1144	1	26.817	2.3662	5.5212
1145	2	28.395	1.5775	4.7325
1146	2	29.184	2.3662	4.7325
1147	2	29.184	1.5775	5.5212
1148	2	28.395	2.3662	5.5212
1149	2	29.972	1.5775	4.7325
1150	2	30.761	2.3662	4.7325
1151	2	30.761	1.5775	5.5212
1152	2	29.972	2.3662	5.5212
1153	1	25.24	3.155	0
1154	1	26.029	3.9437	0
1155	1	26.029	3.155	0.78875
1156	1	25.24	3.9437	0.78875
1157	1	26.817	3.155	0
1158	1	27.606	3.9437	0
1159	1	27.606	3.155	0.78875
1160	1	26.817	3.9437	0.78875
1161	2	28.395	3.155	0
1162	2	29.184	3.9437	0
1163	2	29.184	3.155	0.78875
1164	2	28.395	3.9437	0.78875
1165	2	29.972	3.155	0
1166	2	30.761	3.9437	0
1167	2	30.761	3.155	0.78875
1168	2	29.972	3.9437	0.78875
1169	1	25.24	3.155	1.5775
1170	1	26.029	3.9437	1.5775
1171	1	26.029	3.155	2.3662
1172	1	25.24	3.9437	2.3662