	
2048 atoms
2 atom types	

0.0 50.48 xlo xhi
0.0 6.31 ylo yhi
0.0 6.31 zlo zhi

#-15.16 0.0 0.0 xy xz yz

Masses

1 1
2 3

Atoms				

