	
8064 atoms
2 atom types	

0.0 87.5406 xlo xhi
0.0 9.3794 ylo yhi
0.0 9.3794 zlo zhi

#-15.16 0.0 0.0 xy xz yz

Masses

1 1
2 3

Atoms				

1	1	0	0	0
2	1	0.78161	0.78161	0
3	1	0.78161	0	0.78161
4	1	0	0.78161	0.78161
5	1	1.5632	0	0
6	1	2.3448	0.78161	0
7	1	2.3448	0	0.78161
8	1	1.5632	0.78161	0.78161
9	1	3.1265	0	0
10	1	3.9081	0.78161	0
11	1	3.9081	0	0.78161
12	1	3.1265	0.78161	0.78161
13	1	4.6897	0	0
14	1	5.4713	0.78161	0
15	1	5.4713	0	0.78161
16	1	4.6897	0.78161	0.78161
17	1	6.2529	0	0
18	1	7.0345	0.78161	0
19	1	7.0345	0	0.78161
20	1	6.2529	0.78161	0.78161
21	1	7.8161	0	0
22	1	8.5977	0.78161	0
23	1	8.5977	0	0.78161
24	1	7.8161	0.78161	0.78161
25	1	9.3794	0	0
26	1	10.161	0.78161	0
27	1	10.161	0	0.78161
28	1	9.3794	0.78161	0.78161
29	2	10.943	0	0
30	2	11.724	0.78161	0
31	2	11.724	0	0.78161
32	2	10.943	0.78161	0.78161
33	2	12.506	0	0
34	2	13.287	0.78161	0
35	2	13.287	0	0.78161
36	2	12.506	0.78161	0.78161
37	2	14.069	0	0
38	2	14.851	0.78161	0
39	2	14.851	0	0.78161
40	2	14.069	0.78161	0.78161
41	2	15.632	0	0
42	2	16.414	0.78161	0
43	2	16.414	0	0.78161
44	2	15.632	0.78161	0.78161
45	2	17.195	0	0
46	2	17.977	0.78161	0
47	2	17.977	0	0.78161
48	2	17.195	0.78161	0.78161
49	2	18.759	0	0
50	2	19.54	0.78161	0
51	2	19.54	0	0.78161
52	2	18.759	0.78161	0.78161
53	2	20.322	0	0
54	2	21.104	0.78161	0
55	2	21.104	0	0.78161
56	2	20.322	0.78161	0.78161
57	1	0	0	1.5632
58	1	0.78161	0.78161	1.5632
59	1	0.78161	0	2.3448
60	1	0	0.78161	2.3448
61	1	1.5632	0	1.5632
62	1	2.3448	0.78161	1.5632
63	1	2.3448	0	2.3448
64	1	1.5632	0.78161	2.3448
65	1	3.1265	0	1.5632
66	1	3.9081	0.78161	1.5632
67	1	3.9081	0	2.3448
68	1	3.1265	0.78161	2.3448
69	1	4.6897	0	1.5632
70	1	5.4713	0.78161	1.5632
71	1	5.4713	0	2.3448
72	1	4.6897	0.78161	2.3448
73	1	6.2529	0	1.5632
74	1	7.0345	0.78161	1.5632
75	1	7.0345	0	2.3448
76	1	6.2529	0.78161	2.3448
77	1	7.8161	0	1.5632
78	1	8.5977	0.78161	1.5632
79	1	8.5977	0	2.3448
80	1	7.8161	0.78161	2.3448
81	1	9.3794	0	1.5632
82	1	10.161	0.78161	1.5632
83	1	10.161	0	2.3448
84	1	9.3794	0.78161	2.3448
85	2	10.943	0	1.5632
86	2	11.724	0.78161	1.5632
87	2	11.724	0	2.3448
88	2	10.943	0.78161	2.3448
89	2	12.506	0	1.5632
90	2	13.287	0.78161	1.5632
91	2	13.287	0	2.3448
92	2	12.506	0.78161	2.3448
93	2	14.069	0	1.5632
94	2	14.851	0.78161	1.5632
95	2	14.851	0	2.3448
96	2	14.069	0.78161	2.3448
97	2	15.632	0	1.5632
98	2	16.414	0.78161	1.5632
99	2	16.414	0	2.3448
100	2	15.632	0.78161	2.3448
101	2	17.195	0	1.5632
102	2	17.977	0.78161	1.5632
103	2	17.977	0	2.3448
104	2	17.195	0.78161	2.3448
105	2	18.759	0	1.5632
106	2	19.54	0.78161	1.5632
107	2	19.54	0	2.3448
108	2	18.759	0.78161	2.3448
109	2	20.322	0	1.5632
110	2	21.104	0.78161	1.5632
111	2	21.104	0	2.3448
112	2	20.322	0.78161	2.3448
113	1	0	0	3.1265
114	1	0.78161	0.78161	3.1265
115	1	0.78161	0	3.9081
116	1	0	0.78161	3.9081
117	1	1.5632	0	3.1265
118	1	2.3448	0.78161	3.1265
119	1	2.3448	0	3.9081
120	1	1.5632	0.78161	3.9081
121	1	3.1265	0	3.1265
122	1	3.9081	0.78161	3.1265
123	1	3.9081	0	3.9081
124	1	3.1265	0.78161	3.9081
125	1	4.6897	0	3.1265
126	1	5.4713	0.78161	3.1265
127	1	5.4713	0	3.9081
128	1	4.6897	0.78161	3.9081
129	1	6.2529	0	3.1265
130	1	7.0345	0.78161	3.1265
131	1	7.0345	0	3.9081
132	1	6.2529	0.78161	3.9081
133	1	7.8161	0	3.1265
134	1	8.5977	0.78161	3.1265
135	1	8.5977	0	3.9081
136	1	7.8161	0.78161	3.9081
137	1	9.3794	0	3.1265
138	1	10.161	0.78161	3.1265
139	1	10.161	0	3.9081
140	1	9.3794	0.78161	3.9081
141	2	10.943	0	3.1265
142	2	11.724	0.78161	3.1265
143	2	11.724	0	3.9081
144	2	10.943	0.78161	3.9081
145	2	12.506	0	3.1265
146	2	13.287	0.78161	3.1265
147	2	13.287	0	3.9081
148	2	12.506	0.78161	3.9081
149	2	14.069	0	3.1265
150	2	14.851	0.78161	3.1265
151	2	14.851	0	3.9081
152	2	14.069	0.78161	3.9081
153	2	15.632	0	3.1265
154	2	16.414	0.78161	3.1265
155	2	16.414	0	3.9081
156	2	15.632	0.78161	3.9081
157	2	17.195	0	3.1265
158	2	17.977	0.78161	3.1265
159	2	17.977	0	3.9081
160	2	17.195	0.78161	3.9081
161	2	18.759	0	3.1265
162	2	19.54	0.78161	3.1265
163	2	19.54	0	3.9081
164	2	18.759	0.78161	3.9081
165	2	20.322	0	3.1265
166	2	21.104	0.78161	3.1265
167	2	21.104	0	3.9081
168	2	20.322	0.78161	3.9081
169	1	0	0	4.6897
170	1	0.78161	0.78161	4.6897
171	1	0.78161	0	5.4713
172	1	0	0.78161	5.4713
173	1	1.5632	0	4.6897
174	1	2.3448	0.78161	4.6897
175	1	2.3448	0	5.4713
176	1	1.5632	0.78161	5.4713
177	1	3.1265	0	4.6897
178	1	3.9081	0.78161	4.6897
179	1	3.9081	0	5.4713
180	1	3.1265	0.78161	5.4713
181	1	4.6897	0	4.6897
182	1	5.4713	0.78161	4.6897
183	1	5.4713	0	5.4713
184	1	4.6897	0.78161	5.4713
185	1	6.2529	0	4.6897
186	1	7.0345	0.78161	4.6897
187	1	7.0345	0	5.4713
188	1	6.2529	0.78161	5.4713
189	1	7.8161	0	4.6897
190	1	8.5977	0.78161	4.6897
191	1	8.5977	0	5.4713
192	1	7.8161	0.78161	5.4713
193	1	9.3794	0	4.6897
194	1	10.161	0.78161	4.6897
195	1	10.161	0	5.4713
196	1	9.3794	0.78161	5.4713
197	2	10.943	0	4.6897
198	2	11.724	0.78161	4.6897
199	2	11.724	0	5.4713
200	2	10.943	0.78161	5.4713
201	2	12.506	0	4.6897
202	2	13.287	0.78161	4.6897
203	2	13.287	0	5.4713
204	2	12.506	0.78161	5.4713
205	2	14.069	0	4.6897
206	2	14.851	0.78161	4.6897
207	2	14.851	0	5.4713
208	2	14.069	0.78161	5.4713
209	2	15.632	0	4.6897
210	2	16.414	0.78161	4.6897
211	2	16.414	0	5.4713
212	2	15.632	0.78161	5.4713
213	2	17.195	0	4.6897
214	2	17.977	0.78161	4.6897
215	2	17.977	0	5.4713
216	2	17.195	0.78161	5.4713
217	2	18.759	0	4.6897
218	2	19.54	0.78161	4.6897
219	2	19.54	0	5.4713
220	2	18.759	0.78161	5.4713
221	2	20.322	0	4.6897
222	2	21.104	0.78161	4.6897
223	2	21.104	0	5.4713
224	2	20.322	0.78161	5.4713
225	1	0	0	6.2529
226	1	0.78161	0.78161	6.2529
227	1	0.78161	0	7.0345
228	1	0	0.78161	7.0345
229	1	1.5632	0	6.2529
230	1	2.3448	0.78161	6.2529
231	1	2.3448	0	7.0345
232	1	1.5632	0.78161	7.0345
233	1	3.1265	0	6.2529
234	1	3.9081	0.78161	6.2529
235	1	3.9081	0	7.0345
236	1	3.1265	0.78161	7.0345
237	1	4.6897	0	6.2529
238	1	5.4713	0.78161	6.2529
239	1	5.4713	0	7.0345
240	1	4.6897	0.78161	7.0345
241	1	6.2529	0	6.2529
242	1	7.0345	0.78161	6.2529
243	1	7.0345	0	7.0345
244	1	6.2529	0.78161	7.0345
245	1	7.8161	0	6.2529
246	1	8.5977	0.78161	6.2529
247	1	8.5977	0	7.0345
248	1	7.8161	0.78161	7.0345
249	1	9.3794	0	6.2529
250	1	10.161	0.78161	6.2529
251	1	10.161	0	7.0345
252	1	9.3794	0.78161	7.0345
253	2	10.943	0	6.2529
254	2	11.724	0.78161	6.2529
255	2	11.724	0	7.0345
256	2	10.943	0.78161	7.0345
257	2	12.506	0	6.2529
258	2	13.287	0.78161	6.2529
259	2	13.287	0	7.0345
260	2	12.506	0.78161	7.0345
261	2	14.069	0	6.2529
262	2	14.851	0.78161	6.2529
263	2	14.851	0	7.0345
264	2	14.069	0.78161	7.0345
265	2	15.632	0	6.2529
266	2	16.414	0.78161	6.2529
267	2	16.414	0	7.0345
268	2	15.632	0.78161	7.0345
269	2	17.195	0	6.2529
270	2	17.977	0.78161	6.2529
271	2	17.977	0	7.0345
272	2	17.195	0.78161	7.0345
273	2	18.759	0	6.2529
274	2	19.54	0.78161	6.2529
275	2	19.54	0	7.0345
276	2	18.759	0.78161	7.0345
277	2	20.322	0	6.2529
278	2	21.104	0.78161	6.2529
279	2	21.104	0	7.0345
280	2	20.322	0.78161	7.0345
281	1	0	0	7.8161
282	1	0.78161	0.78161	7.8161
283	1	0.78161	0	8.5977
284	1	0	0.78161	8.5977
285	1	1.5632	0	7.8161
286	1	2.3448	0.78161	7.8161
287	1	2.3448	0	8.5977
288	1	1.5632	0.78161	8.5977
289	1	3.1265	0	7.8161
290	1	3.9081	0.78161	7.8161
291	1	3.9081	0	8.5977
292	1	3.1265	0.78161	8.5977
293	1	4.6897	0	7.8161
294	1	5.4713	0.78161	7.8161
295	1	5.4713	0	8.5977
296	1	4.6897	0.78161	8.5977
297	1	6.2529	0	7.8161
298	1	7.0345	0.78161	7.8161
299	1	7.0345	0	8.5977
300	1	6.2529	0.78161	8.5977
301	1	7.8161	0	7.8161
302	1	8.5977	0.78161	7.8161
303	1	8.5977	0	8.5977
304	1	7.8161	0.78161	8.5977
305	1	9.3794	0	7.8161
306	1	10.161	0.78161	7.8161
307	1	10.161	0	8.5977
308	1	9.3794	0.78161	8.5977
309	2	10.943	0	7.8161
310	2	11.724	0.78161	7.8161
311	2	11.724	0	8.5977
312	2	10.943	0.78161	8.5977
313	2	12.506	0	7.8161
314	2	13.287	0.78161	7.8161
315	2	13.287	0	8.5977
316	2	12.506	0.78161	8.5977
317	2	14.069	0	7.8161
318	2	14.851	0.78161	7.8161
319	2	14.851	0	8.5977
320	2	14.069	0.78161	8.5977
321	2	15.632	0	7.8161
322	2	16.414	0.78161	7.8161
323	2	16.414	0	8.5977
324	2	15.632	0.78161	8.5977
325	2	17.195	0	7.8161
326	2	17.977	0.78161	7.8161
327	2	17.977	0	8.5977
328	2	17.195	0.78161	8.5977
329	2	18.759	0	7.8161
330	2	19.54	0.78161	7.8161
331	2	19.54	0	8.5977
332	2	18.759	0.78161	8.5977
333	2	20.322	0	7.8161
334	2	21.104	0.78161	7.8161
335	2	21.104	0	8.5977
336	2	20.322	0.78161	8.5977
337	1	0	1.5632	0
338	1	0.78161	2.3448	0
339	1	0.78161	1.5632	0.78161
340	1	0	2.3448	0.78161
341	1	1.5632	1.5632	0
342	1	2.3448	2.3448	0
343	1	2.3448	1.5632	0.78161
344	1	1.5632	2.3448	0.78161
345	1	3.1265	1.5632	0
346	1	3.9081	2.3448	0
347	1	3.9081	1.5632	0.78161
348	1	3.1265	2.3448	0.78161
349	1	4.6897	1.5632	0
350	1	5.4713	2.3448	0
351	1	5.4713	1.5632	0.78161
352	1	4.6897	2.3448	0.78161
353	1	6.2529	1.5632	0
354	1	7.0345	2.3448	0
355	1	7.0345	1.5632	0.78161
356	1	6.2529	2.3448	0.78161
357	1	7.8161	1.5632	0
358	1	8.5977	2.3448	0
359	1	8.5977	1.5632	0.78161
360	1	7.8161	2.3448	0.78161
361	1	9.3794	1.5632	0
362	1	10.161	2.3448	0
363	1	10.161	1.5632	0.78161
364	1	9.3794	2.3448	0.78161
365	2	10.943	1.5632	0
366	2	11.724	2.3448	0
367	2	11.724	1.5632	0.78161
368	2	10.943	2.3448	0.78161
369	2	12.506	1.5632	0
370	2	13.287	2.3448	0
371	2	13.287	1.5632	0.78161
372	2	12.506	2.3448	0.78161
373	2	14.069	1.5632	0
374	2	14.851	2.3448	0
375	2	14.851	1.5632	0.78161
376	2	14.069	2.3448	0.78161
377	2	15.632	1.5632	0
378	2	16.414	2.3448	0
379	2	16.414	1.5632	0.78161
380	2	15.632	2.3448	0.78161
381	2	17.195	1.5632	0
382	2	17.977	2.3448	0
383	2	17.977	1.5632	0.78161
384	2	17.195	2.3448	0.78161
385	2	18.759	1.5632	0
386	2	19.54	2.3448	0
387	2	19.54	1.5632	0.78161
388	2	18.759	2.3448	0.78161
389	2	20.322	1.5632	0
390	2	21.104	2.3448	0
391	2	21.104	1.5632	0.78161
392	2	20.322	2.3448	0.78161
393	1	0	1.5632	1.5632
394	1	0.78161	2.3448	1.5632
395	1	0.78161	1.5632	2.3448
396	1	0	2.3448	2.3448
397	1	1.5632	1.5632	1.5632
398	1	2.3448	2.3448	1.5632
399	1	2.3448	1.5632	2.3448
400	1	1.5632	2.3448	2.3448
401	1	3.1265	1.5632	1.5632
402	1	3.9081	2.3448	1.5632
403	1	3.9081	1.5632	2.3448
404	1	3.1265	2.3448	2.3448
405	1	4.6897	1.5632	1.5632
406	1	5.4713	2.3448	1.5632
407	1	5.4713	1.5632	2.3448
408	1	4.6897	2.3448	2.3448
409	1	6.2529	1.5632	1.5632
410	1	7.0345	2.3448	1.5632
411	1	7.0345	1.5632	2.3448
412	1	6.2529	2.3448	2.3448
413	1	7.8161	1.5632	1.5632
414	1	8.5977	2.3448	1.5632
415	1	8.5977	1.5632	2.3448
416	1	7.8161	2.3448	2.3448
417	1	9.3794	1.5632	1.5632
418	1	10.161	2.3448	1.5632
419	1	10.161	1.5632	2.3448
420	1	9.3794	2.3448	2.3448
421	2	10.943	1.5632	1.5632
422	2	11.724	2.3448	1.5632
423	2	11.724	1.5632	2.3448
424	2	10.943	2.3448	2.3448
425	2	12.506	1.5632	1.5632
426	2	13.287	2.3448	1.5632
427	2	13.287	1.5632	2.3448
428	2	12.506	2.3448	2.3448
429	2	14.069	1.5632	1.5632
430	2	14.851	2.3448	1.5632
431	2	14.851	1.5632	2.3448
432	2	14.069	2.3448	2.3448
433	2	15.632	1.5632	1.5632
434	2	16.414	2.3448	1.5632
435	2	16.414	1.5632	2.3448
436	2	15.632	2.3448	2.3448
437	2	17.195	1.5632	1.5632
438	2	17.977	2.3448	1.5632
439	2	17.977	1.5632	2.3448
440	2	17.195	2.3448	2.3448
441	2	18.759	1.5632	1.5632
442	2	19.54	2.3448	1.5632
443	2	19.54	1.5632	2.3448
444	2	18.759	2.3448	2.3448
445	2	20.322	1.5632	1.5632
446	2	21.104	2.3448	1.5632
447	2	21.104	1.5632	2.3448
448	2	20.322	2.3448	2.3448
449	1	0	1.5632	3.1265
450	1	0.78161	2.3448	3.1265
451	1	0.78161	1.5632	3.9081
452	1	0	2.3448	3.9081
453	1	1.5632	1.5632	3.1265
454	1	2.3448	2.3448	3.1265
455	1	2.3448	1.5632	3.9081
456	1	1.5632	2.3448	3.9081
457	1	3.1265	1.5632	3.1265
458	1	3.9081	2.3448	3.1265
459	1	3.9081	1.5632	3.9081
460	1	3.1265	2.3448	3.9081
461	1	4.6897	1.5632	3.1265
462	1	5.4713	2.3448	3.1265
463	1	5.4713	1.5632	3.9081
464	1	4.6897	2.3448	3.9081
465	1	6.2529	1.5632	3.1265
466	1	7.0345	2.3448	3.1265
467	1	7.0345	1.5632	3.9081
468	1	6.2529	2.3448	3.9081
469	1	7.8161	1.5632	3.1265
470	1	8.5977	2.3448	3.1265
471	1	8.5977	1.5632	3.9081
472	1	7.8161	2.3448	3.9081
473	1	9.3794	1.5632	3.1265
474	1	10.161	2.3448	3.1265
475	1	10.161	1.5632	3.9081
476	1	9.3794	2.3448	3.9081
477	2	10.943	1.5632	3.1265
478	2	11.724	2.3448	3.1265
479	2	11.724	1.5632	3.9081
480	2	10.943	2.3448	3.9081
481	2	12.506	1.5632	3.1265
482	2	13.287	2.3448	3.1265
483	2	13.287	1.5632	3.9081
484	2	12.506	2.3448	3.9081
485	2	14.069	1.5632	3.1265
486	2	14.851	2.3448	3.1265
487	2	14.851	1.5632	3.9081
488	2	14.069	2.3448	3.9081
489	2	15.632	1.5632	3.1265
490	2	16.414	2.3448	3.1265
491	2	16.414	1.5632	3.9081
492	2	15.632	2.3448	3.9081
493	2	17.195	1.5632	3.1265
494	2	17.977	2.3448	3.1265
495	2	17.977	1.5632	3.9081
496	2	17.195	2.3448	3.9081
497	2	18.759	1.5632	3.1265
498	2	19.54	2.3448	3.1265
499	2	19.54	1.5632	3.9081
500	2	18.759	2.3448	3.9081
501	2	20.322	1.5632	3.1265
502	2	21.104	2.3448	3.1265
503	2	21.104	1.5632	3.9081
504	2	20.322	2.3448	3.9081
505	1	0	1.5632	4.6897
506	1	0.78161	2.3448	4.6897
507	1	0.78161	1.5632	5.4713
508	1	0	2.3448	5.4713
509	1	1.5632	1.5632	4.6897
510	1	2.3448	2.3448	4.6897
511	1	2.3448	1.5632	5.4713
512	1	1.5632	2.3448	5.4713
513	1	3.1265	1.5632	4.6897
514	1	3.9081	2.3448	4.6897
515	1	3.9081	1.5632	5.4713
516	1	3.1265	2.3448	5.4713
517	1	4.6897	1.5632	4.6897
518	1	5.4713	2.3448	4.6897
519	1	5.4713	1.5632	5.4713
520	1	4.6897	2.3448	5.4713
521	1	6.2529	1.5632	4.6897
522	1	7.0345	2.3448	4.6897
523	1	7.0345	1.5632	5.4713
524	1	6.2529	2.3448	5.4713
525	1	7.8161	1.5632	4.6897
526	1	8.5977	2.3448	4.6897
527	1	8.5977	1.5632	5.4713
528	1	7.8161	2.3448	5.4713
529	1	9.3794	1.5632	4.6897
530	1	10.161	2.3448	4.6897
531	1	10.161	1.5632	5.4713
532	1	9.3794	2.3448	5.4713
533	2	10.943	1.5632	4.6897
534	2	11.724	2.3448	4.6897
535	2	11.724	1.5632	5.4713
536	2	10.943	2.3448	5.4713
537	2	12.506	1.5632	4.6897
538	2	13.287	2.3448	4.6897
539	2	13.287	1.5632	5.4713
540	2	12.506	2.3448	5.4713
541	2	14.069	1.5632	4.6897
542	2	14.851	2.3448	4.6897
543	2	14.851	1.5632	5.4713
544	2	14.069	2.3448	5.4713
545	2	15.632	1.5632	4.6897
546	2	16.414	2.3448	4.6897
547	2	16.414	1.5632	5.4713
548	2	15.632	2.3448	5.4713
549	2	17.195	1.5632	4.6897
550	2	17.977	2.3448	4.6897
551	2	17.977	1.5632	5.4713
552	2	17.195	2.3448	5.4713
553	2	18.759	1.5632	4.6897
554	2	19.54	2.3448	4.6897
555	2	19.54	1.5632	5.4713
556	2	18.759	2.3448	5.4713
557	2	20.322	1.5632	4.6897
558	2	21.104	2.3448	4.6897
559	2	21.104	1.5632	5.4713
560	2	20.322	2.3448	5.4713
561	1	0	1.5632	6.2529
562	1	0.78161	2.3448	6.2529
563	1	0.78161	1.5632	7.0345
564	1	0	2.3448	7.0345
565	1	1.5632	1.5632	6.2529
566	1	2.3448	2.3448	6.2529
567	1	2.3448	1.5632	7.0345
568	1	1.5632	2.3448	7.0345
569	1	3.1265	1.5632	6.2529
570	1	3.9081	2.3448	6.2529
571	1	3.9081	1.5632	7.0345
572	1	3.1265	2.3448	7.0345
573	1	4.6897	1.5632	6.2529
574	1	5.4713	2.3448	6.2529
575	1	5.4713	1.5632	7.0345
576	1	4.6897	2.3448	7.0345
577	1	6.2529	1.5632	6.2529
578	1	7.0345	2.3448	6.2529
579	1	7.0345	1.5632	7.0345
580	1	6.2529	2.3448	7.0345
581	1	7.8161	1.5632	6.2529
582	1	8.5977	2.3448	6.2529
583	1	8.5977	1.5632	7.0345
584	1	7.8161	2.3448	7.0345
585	1	9.3794	1.5632	6.2529
586	1	10.161	2.3448	6.2529
587	1	10.161	1.5632	7.0345
588	1	9.3794	2.3448	7.0345
589	2	10.943	1.5632	6.2529
590	2	11.724	2.3448	6.2529
591	2	11.724	1.5632	7.0345
592	2	10.943	2.3448	7.0345
593	2	12.506	1.5632	6.2529
594	2	13.287	2.3448	6.2529
595	2	13.287	1.5632	7.0345
596	2	12.506	2.3448	7.0345
597	2	14.069	1.5632	6.2529
598	2	14.851	2.3448	6.2529
599	2	14.851	1.5632	7.0345
600	2	14.069	2.3448	7.0345
601	2	15.632	1.5632	6.2529
602	2	16.414	2.3448	6.2529
603	2	16.414	1.5632	7.0345
604	2	15.632	2.3448	7.0345
605	2	17.195	1.5632	6.2529
606	2	17.977	2.3448	6.2529
607	2	17.977	1.5632	7.0345
608	2	17.195	2.3448	7.0345
609	2	18.759	1.5632	6.2529
610	2	19.54	2.3448	6.2529
611	2	19.54	1.5632	7.0345
612	2	18.759	2.3448	7.0345
613	2	20.322	1.5632	6.2529
614	2	21.104	2.3448	6.2529
615	2	21.104	1.5632	7.0345
616	2	20.322	2.3448	7.0345
617	1	0	1.5632	7.8161
618	1	0.78161	2.3448	7.8161
619	1	0.78161	1.5632	8.5977
620	1	0	2.3448	8.5977
621	1	1.5632	1.5632	7.8161
622	1	2.3448	2.3448	7.8161
623	1	2.3448	1.5632	8.5977
624	1	1.5632	2.3448	8.5977
625	1	3.1265	1.5632	7.8161
626	1	3.9081	2.3448	7.8161
627	1	3.9081	1.5632	8.5977
628	1	3.1265	2.3448	8.5977
629	1	4.6897	1.5632	7.8161
630	1	5.4713	2.3448	7.8161
631	1	5.4713	1.5632	8.5977
632	1	4.6897	2.3448	8.5977
633	1	6.2529	1.5632	7.8161
634	1	7.0345	2.3448	7.8161
635	1	7.0345	1.5632	8.5977
636	1	6.2529	2.3448	8.5977
637	1	7.8161	1.5632	7.8161
638	1	8.5977	2.3448	7.8161
639	1	8.5977	1.5632	8.5977
640	1	7.8161	2.3448	8.5977
641	1	9.3794	1.5632	7.8161
642	1	10.161	2.3448	7.8161
643	1	10.161	1.5632	8.5977
644	1	9.3794	2.3448	8.5977
645	2	10.943	1.5632	7.8161
646	2	11.724	2.3448	7.8161
647	2	11.724	1.5632	8.5977
648	2	10.943	2.3448	8.5977
649	2	12.506	1.5632	7.8161
650	2	13.287	2.3448	7.8161
651	2	13.287	1.5632	8.5977
652	2	12.506	2.3448	8.5977
653	2	14.069	1.5632	7.8161
654	2	14.851	2.3448	7.8161
655	2	14.851	1.5632	8.5977
656	2	14.069	2.3448	8.5977
657	2	15.632	1.5632	7.8161
658	2	16.414	2.3448	7.8161
659	2	16.414	1.5632	8.5977
660	2	15.632	2.3448	8.5977
661	2	17.195	1.5632	7.8161
662	2	17.977	2.3448	7.8161
663	2	17.977	1.5632	8.5977
664	2	17.195	2.3448	8.5977
665	2	18.759	1.5632	7.8161
666	2	19.54	2.3448	7.8161
667	2	19.54	1.5632	8.5977
668	2	18.759	2.3448	8.5977
669	2	20.322	1.5632	7.8161
670	2	21.104	2.3448	7.8161
671	2	21.104	1.5632	8.5977
672	2	20.322	2.3448	8.5977
673	1	0	3.1265	0
674	1	0.78161	3.9081	0
675	1	0.78161	3.1265	0.78161
676	1	0	3.9081	0.78161
677	1	1.5632	3.1265	0
678	1	2.3448	3.9081	0
679	1	2.3448	3.1265	0.78161
680	1	1.5632	3.9081	0.78161
681	1	3.1265	3.1265	0
682	1	3.9081	3.9081	0
683	1	3.9081	3.1265	0.78161
684	1	3.1265	3.9081	0.78161
685	1	4.6897	3.1265	0
686	1	5.4713	3.9081	0
687	1	5.4713	3.1265	0.78161
688	1	4.6897	3.9081	0.78161
689	1	6.2529	3.1265	0
690	1	7.0345	3.9081	0
691	1	7.0345	3.1265	0.78161
692	1	6.2529	3.9081	0.78161
693	1	7.8161	3.1265	0
694	1	8.5977	3.9081	0
695	1	8.5977	3.1265	0.78161
696	1	7.8161	3.9081	0.78161
697	1	9.3794	3.1265	0
698	1	10.161	3.9081	0
699	1	10.161	3.1265	0.78161
700	1	9.3794	3.9081	0.78161
701	2	10.943	3.1265	0
702	2	11.724	3.9081	0
703	2	11.724	3.1265	0.78161
704	2	10.943	3.9081	0.78161
705	2	12.506	3.1265	0
706	2	13.287	3.9081	0
707	2	13.287	3.1265	0.78161
708	2	12.506	3.9081	0.78161
709	2	14.069	3.1265	0
710	2	14.851	3.9081	0
711	2	14.851	3.1265	0.78161
712	2	14.069	3.9081	0.78161
713	2	15.632	3.1265	0
714	2	16.414	3.9081	0
715	2	16.414	3.1265	0.78161
716	2	15.632	3.9081	0.78161
717	2	17.195	3.1265	0
718	2	17.977	3.9081	0
719	2	17.977	3.1265	0.78161
720	2	17.195	3.9081	0.78161
721	2	18.759	3.1265	0
722	2	19.54	3.9081	0
723	2	19.54	3.1265	0.78161
724	2	18.759	3.9081	0.78161
725	2	20.322	3.1265	0
726	2	21.104	3.9081	0
727	2	21.104	3.1265	0.78161
728	2	20.322	3.9081	0.78161
729	1	0	3.1265	1.5632
730	1	0.78161	3.9081	1.5632
731	1	0.78161	3.1265	2.3448
732	1	0	3.9081	2.3448
733	1	1.5632	3.1265	1.5632
734	1	2.3448	3.9081	1.5632
735	1	2.3448	3.1265	2.3448
736	1	1.5632	3.9081	2.3448
737	1	3.1265	3.1265	1.5632
738	1	3.9081	3.9081	1.5632
739	1	3.9081	3.1265	2.3448
740	1	3.1265	3.9081	2.3448
741	1	4.6897	3.1265	1.5632
742	1	5.4713	3.9081	1.5632
743	1	5.4713	3.1265	2.3448
744	1	4.6897	3.9081	2.3448
745	1	6.2529	3.1265	1.5632
746	1	7.0345	3.9081	1.5632
747	1	7.0345	3.1265	2.3448
748	1	6.2529	3.9081	2.3448
749	1	7.8161	3.1265	1.5632
750	1	8.5977	3.9081	1.5632
751	1	8.5977	3.1265	2.3448
752	1	7.8161	3.9081	2.3448
753	1	9.3794	3.1265	1.5632
754	1	10.161	3.9081	1.5632
755	1	10.161	3.1265	2.3448
756	1	9.3794	3.9081	2.3448
757	2	10.943	3.1265	1.5632
758	2	11.724	3.9081	1.5632
759	2	11.724	3.1265	2.3448
760	2	10.943	3.9081	2.3448
761	2	12.506	3.1265	1.5632
762	2	13.287	3.9081	1.5632
763	2	13.287	3.1265	2.3448
764	2	12.506	3.9081	2.3448
765	2	14.069	3.1265	1.5632
766	2	14.851	3.9081	1.5632
767	2	14.851	3.1265	2.3448
768	2	14.069	3.9081	2.3448
769	2	15.632	3.1265	1.5632
770	2	16.414	3.9081	1.5632
771	2	16.414	3.1265	2.3448
772	2	15.632	3.9081	2.3448
773	2	17.195	3.1265	1.5632
774	2	17.977	3.9081	1.5632
775	2	17.977	3.1265	2.3448
776	2	17.195	3.9081	2.3448
777	2	18.759	3.1265	1.5632
778	2	19.54	3.9081	1.5632
779	2	19.54	3.1265	2.3448
780	2	18.759	3.9081	2.3448
781	2	20.322	3.1265	1.5632
782	2	21.104	3.9081	1.5632
783	2	21.104	3.1265	2.3448
784	2	20.322	3.9081	2.3448
785	1	0	3.1265	3.1265
786	1	0.78161	3.9081	3.1265
787	1	0.78161	3.1265	3.9081
788	1	0	3.9081	3.9081
789	1	1.5632	3.1265	3.1265
790	1	2.3448	3.9081	3.1265
791	1	2.3448	3.1265	3.9081
792	1	1.5632	3.9081	3.9081
793	1	3.1265	3.1265	3.1265
794	1	3.9081	3.9081	3.1265
795	1	3.9081	3.1265	3.9081
796	1	3.1265	3.9081	3.9081
797	1	4.6897	3.1265	3.1265
798	1	5.4713	3.9081	3.1265
799	1	5.4713	3.1265	3.9081
800	1	4.6897	3.9081	3.9081
801	1	6.2529	3.1265	3.1265
802	1	7.0345	3.9081	3.1265
803	1	7.0345	3.1265	3.9081
804	1	6.2529	3.9081	3.9081
805	1	7.8161	3.1265	3.1265
806	1	8.5977	3.9081	3.1265
807	1	8.5977	3.1265	3.9081
808	1	7.8161	3.9081	3.9081
809	1	9.3794	3.1265	3.1265
810	1	10.161	3.9081	3.1265
811	1	10.161	3.1265	3.9081
812	1	9.3794	3.9081	3.9081
813	2	10.943	3.1265	3.1265
814	2	11.724	3.9081	3.1265
815	2	11.724	3.1265	3.9081
816	2	10.943	3.9081	3.9081
817	2	12.506	3.1265	3.1265
818	2	13.287	3.9081	3.1265
819	2	13.287	3.1265	3.9081
820	2	12.506	3.9081	3.9081
821	2	14.069	3.1265	3.1265
822	2	14.851	3.9081	3.1265
823	2	14.851	3.1265	3.9081
824	2	14.069	3.9081	3.9081
825	2	15.632	3.1265	3.1265
826	2	16.414	3.9081	3.1265
827	2	16.414	3.1265	3.9081
828	2	15.632	3.9081	3.9081
829	2	17.195	3.1265	3.1265
830	2	17.977	3.9081	3.1265
831	2	17.977	3.1265	3.9081
832	2	17.195	3.9081	3.9081
833	2	18.759	3.1265	3.1265
834	2	19.54	3.9081	3.1265
835	2	19.54	3.1265	3.9081
836	2	18.759	3.9081	3.9081
837	2	20.322	3.1265	3.1265
838	2	21.104	3.9081	3.1265
839	2	21.104	3.1265	3.9081
840	2	20.322	3.9081	3.9081
841	1	0	3.1265	4.6897
842	1	0.78161	3.9081	4.6897
843	1	0.78161	3.1265	5.4713
844	1	0	3.9081	5.4713
845	1	1.5632	3.1265	4.6897
846	1	2.3448	3.9081	4.6897
847	1	2.3448	3.1265	5.4713
848	1	1.5632	3.9081	5.4713
849	1	3.1265	3.1265	4.6897
850	1	3.9081	3.9081	4.6897
851	1	3.9081	3.1265	5.4713
852	1	3.1265	3.9081	5.4713
853	1	4.6897	3.1265	4.6897
854	1	5.4713	3.9081	4.6897
855	1	5.4713	3.1265	5.4713
856	1	4.6897	3.9081	5.4713
857	1	6.2529	3.1265	4.6897
858	1	7.0345	3.9081	4.6897
859	1	7.0345	3.1265	5.4713
860	1	6.2529	3.9081	5.4713
861	1	7.8161	3.1265	4.6897
862	1	8.5977	3.9081	4.6897
863	1	8.5977	3.1265	5.4713
864	1	7.8161	3.9081	5.4713
865	1	9.3794	3.1265	4.6897
866	1	10.161	3.9081	4.6897
867	1	10.161	3.1265	5.4713
868	1	9.3794	3.9081	5.4713
869	2	10.943	3.1265	4.6897
870	2	11.724	3.9081	4.6897
871	2	11.724	3.1265	5.4713
872	2	10.943	3.9081	5.4713
873	2	12.506	3.1265	4.6897
874	2	13.287	3.9081	4.6897
875	2	13.287	3.1265	5.4713
876	2	12.506	3.9081	5.4713
877	2	14.069	3.1265	4.6897
878	2	14.851	3.9081	4.6897
879	2	14.851	3.1265	5.4713
880	2	14.069	3.9081	5.4713
881	2	15.632	3.1265	4.6897
882	2	16.414	3.9081	4.6897
883	2	16.414	3.1265	5.4713
884	2	15.632	3.9081	5.4713
885	2	17.195	3.1265	4.6897
886	2	17.977	3.9081	4.6897
887	2	17.977	3.1265	5.4713
888	2	17.195	3.9081	5.4713
889	2	18.759	3.1265	4.6897
890	2	19.54	3.9081	4.6897
891	2	19.54	3.1265	5.4713
892	2	18.759	3.9081	5.4713
893	2	20.322	3.1265	4.6897
894	2	21.104	3.9081	4.6897
895	2	21.104	3.1265	5.4713
896	2	20.322	3.9081	5.4713
897	1	0	3.1265	6.2529
898	1	0.78161	3.9081	6.2529
899	1	0.78161	3.1265	7.0345
900	1	0	3.9081	7.0345
901	1	1.5632	3.1265	6.2529
902	1	2.3448	3.9081	6.2529
903	1	2.3448	3.1265	7.0345
904	1	1.5632	3.9081	7.0345
905	1	3.1265	3.1265	6.2529
906	1	3.9081	3.9081	6.2529
907	1	3.9081	3.1265	7.0345
908	1	3.1265	3.9081	7.0345
909	1	4.6897	3.1265	6.2529
910	1	5.4713	3.9081	6.2529
911	1	5.4713	3.1265	7.0345
912	1	4.6897	3.9081	7.0345
913	1	6.2529	3.1265	6.2529
914	1	7.0345	3.9081	6.2529
915	1	7.0345	3.1265	7.0345
916	1	6.2529	3.9081	7.0345
917	1	7.8161	3.1265	6.2529
918	1	8.5977	3.9081	6.2529
919	1	8.5977	3.1265	7.0345
920	1	7.8161	3.9081	7.0345
921	1	9.3794	3.1265	6.2529
922	1	10.161	3.9081	6.2529
923	1	10.161	3.1265	7.0345
924	1	9.3794	3.9081	7.0345
925	2	10.943	3.1265	6.2529
926	2	11.724	3.9081	6.2529
927	2	11.724	3.1265	7.0345
928	2	10.943	3.9081	7.0345
929	2	12.506	3.1265	6.2529
930	2	13.287	3.9081	6.2529
931	2	13.287	3.1265	7.0345
932	2	12.506	3.9081	7.0345
933	2	14.069	3.1265	6.2529
934	2	14.851	3.9081	6.2529
935	2	14.851	3.1265	7.0345
936	2	14.069	3.9081	7.0345
937	2	15.632	3.1265	6.2529
938	2	16.414	3.9081	6.2529
939	2	16.414	3.1265	7.0345
940	2	15.632	3.9081	7.0345
941	2	17.195	3.1265	6.2529
942	2	17.977	3.9081	6.2529
943	2	17.977	3.1265	7.0345
944	2	17.195	3.9081	7.0345
945	2	18.759	3.1265	6.2529
946	2	19.54	3.9081	6.2529
947	2	19.54	3.1265	7.0345
948	2	18.759	3.9081	7.0345
949	2	20.322	3.1265	6.2529
950	2	21.104	3.9081	6.2529
951	2	21.104	3.1265	7.0345
952	2	20.322	3.9081	7.0345
953	1	0	3.1265	7.8161
954	1	0.78161	3.9081	7.8161
955	1	0.78161	3.1265	8.5977
956	1	0	3.9081	8.5977
957	1	1.5632	3.1265	7.8161
958	1	2.3448	3.9081	7.8161
959	1	2.3448	3.1265	8.5977
960	1	1.5632	3.9081	8.5977
961	1	3.1265	3.1265	7.8161
962	1	3.9081	3.9081	7.8161
963	1	3.9081	3.1265	8.5977
964	1	3.1265	3.9081	8.5977
965	1	4.6897	3.1265	7.8161
966	1	5.4713	3.9081	7.8161
967	1	5.4713	3.1265	8.5977
968	1	4.6897	3.9081	8.5977
969	1	6.2529	3.1265	7.8161
970	1	7.0345	3.9081	7.8161
971	1	7.0345	3.1265	8.5977
972	1	6.2529	3.9081	8.5977
973	1	7.8161	3.1265	7.8161
974	1	8.5977	3.9081	7.8161
975	1	8.5977	3.1265	8.5977
976	1	7.8161	3.9081	8.5977
977	1	9.3794	3.1265	7.8161
978	1	10.161	3.9081	7.8161
979	1	10.161	3.1265	8.5977
980	1	9.3794	3.9081	8.5977
981	2	10.943	3.1265	7.8161
982	2	11.724	3.9081	7.8161
983	2	11.724	3.1265	8.5977
984	2	10.943	3.9081	8.5977
985	2	12.506	3.1265	7.8161
986	2	13.287	3.9081	7.8161
987	2	13.287	3.1265	8.5977
988	2	12.506	3.9081	8.5977
989	2	14.069	3.1265	7.8161
990	2	14.851	3.9081	7.8161
991	2	14.851	3.1265	8.5977
992	2	14.069	3.9081	8.5977
993	2	15.632	3.1265	7.8161
994	2	16.414	3.9081	7.8161
995	2	16.414	3.1265	8.5977
996	2	15.632	3.9081	8.5977
997	2	17.195	3.1265	7.8161
998	2	17.977	3.9081	7.8161
999	2	17.977	3.1265	8.5977
1000	2	17.195	3.9081	8.5977
1001	2	18.759	3.1265	7.8161
1002	2	19.54	3.9081	7.8161
1003	2	19.54	3.1265	8.5977
1004	2	18.759	3.9081	8.5977
1005	2	20.322	3.1265	7.8161
1006	2	21.104	3.9081	7.8161
1007	2	21.104	3.1265	8.5977
1008	2	20.322	3.9081	8.5977
1009	1	0	4.6897	0
1010	1	0.78161	5.4713	0
1011	1	0.78161	4.6897	0.78161
1012	1	0	5.4713	0.78161
1013	1	1.5632	4.6897	0
1014	1	2.3448	5.4713	0
1015	1	2.3448	4.6897	0.78161
1016	1	1.5632	5.4713	0.78161
1017	1	3.1265	4.6897	0
1018	1	3.9081	5.4713	0
1019	1	3.9081	4.6897	0.78161
1020	1	3.1265	5.4713	0.78161
1021	1	4.6897	4.6897	0
1022	1	5.4713	5.4713	0
1023	1	5.4713	4.6897	0.78161
1024	1	4.6897	5.4713	0.78161
1025	1	6.2529	4.6897	0
1026	1	7.0345	5.4713	0
1027	1	7.0345	4.6897	0.78161
1028	1	6.2529	5.4713	0.78161
1029	1	7.8161	4.6897	0
1030	1	8.5977	5.4713	0
1031	1	8.5977	4.6897	0.78161
1032	1	7.8161	5.4713	0.78161
1033	1	9.3794	4.6897	0
1034	1	10.161	5.4713	0
1035	1	10.161	4.6897	0.78161
1036	1	9.3794	5.4713	0.78161
1037	2	10.943	4.6897	0
1038	2	11.724	5.4713	0
1039	2	11.724	4.6897	0.78161
1040	2	10.943	5.4713	0.78161
1041	2	12.506	4.6897	0
1042	2	13.287	5.4713	0
1043	2	13.287	4.6897	0.78161
1044	2	12.506	5.4713	0.78161
1045	2	14.069	4.6897	0
1046	2	14.851	5.4713	0
1047	2	14.851	4.6897	0.78161
1048	2	14.069	5.4713	0.78161
1049	2	15.632	4.6897	0
1050	2	16.414	5.4713	0
1051	2	16.414	4.6897	0.78161
1052	2	15.632	5.4713	0.78161
1053	2	17.195	4.6897	0
1054	2	17.977	5.4713	0
1055	2	17.977	4.6897	0.78161
1056	2	17.195	5.4713	0.78161
1057	2	18.759	4.6897	0
1058	2	19.54	5.4713	0
1059	2	19.54	4.6897	0.78161
1060	2	18.759	5.4713	0.78161
1061	2	20.322	4.6897	0
1062	2	21.104	5.4713	0
1063	2	21.104	4.6897	0.78161
1064	2	20.322	5.4713	0.78161
1065	1	0	4.6897	1.5632
1066	1	0.78161	5.4713	1.5632
1067	1	0.78161	4.6897	2.3448
1068	1	0	5.4713	2.3448
1069	1	1.5632	4.6897	1.5632
1070	1	2.3448	5.4713	1.5632
1071	1	2.3448	4.6897	2.3448
1072	1	1.5632	5.4713	2.3448
1073	1	3.1265	4.6897	1.5632
1074	1	3.9081	5.4713	1.5632
1075	1	3.9081	4.6897	2.3448
1076	1	3.1265	5.4713	2.3448
1077	1	4.6897	4.6897	1.5632
1078	1	5.4713	5.4713	1.5632
1079	1	5.4713	4.6897	2.3448
1080	1	4.6897	5.4713	2.3448
1081	1	6.2529	4.6897	1.5632
1082	1	7.0345	5.4713	1.5632
1083	1	7.0345	4.6897	2.3448
1084	1	6.2529	5.4713	2.3448
1085	1	7.8161	4.6897	1.5632
1086	1	8.5977	5.4713	1.5632
1087	1	8.5977	4.6897	2.3448
1088	1	7.8161	5.4713	2.3448
1089	1	9.3794	4.6897	1.5632
1090	1	10.161	5.4713	1.5632
1091	1	10.161	4.6897	2.3448
1092	1	9.3794	5.4713	2.3448
1093	2	10.943	4.6897	1.5632
1094	2	11.724	5.4713	1.5632
1095	2	11.724	4.6897	2.3448
1096	2	10.943	5.4713	2.3448
1097	2	12.506	4.6897	1.5632
1098	2	13.287	5.4713	1.5632
1099	2	13.287	4.6897	2.3448
1100	2	12.506	5.4713	2.3448
1101	2	14.069	4.6897	1.5632
1102	2	14.851	5.4713	1.5632
1103	2	14.851	4.6897	2.3448
1104	2	14.069	5.4713	2.3448
1105	2	15.632	4.6897	1.5632
1106	2	16.414	5.4713	1.5632
1107	2	16.414	4.6897	2.3448
1108	2	15.632	5.4713	2.3448
1109	2	17.195	4.6897	1.5632
1110	2	17.977	5.4713	1.5632
1111	2	17.977	4.6897	2.3448
1112	2	17.195	5.4713	2.3448
1113	2	18.759	4.6897	1.5632
1114	2	19.54	5.4713	1.5632
1115	2	19.54	4.6897	2.3448
1116	2	18.759	5.4713	2.3448
1117	2	20.322	4.6897	1.5632
1118	2	21.104	5.4713	1.5632
1119	2	21.104	4.6897	2.3448
1120	2	20.322	5.4713	2.3448
1121	1	0	4.6897	3.1265
1122	1	0.78161	5.4713	3.1265
1123	1	0.78161	4.6897	3.9081
1124	1	0	5.4713	3.9081
1125	1	1.5632	4.6897	3.1265
1126	1	2.3448	5.4713	3.1265
1127	1	2.3448	4.6897	3.9081
1128	1	1.5632	5.4713	3.9081
1129	1	3.1265	4.6897	3.1265
1130	1	3.9081	5.4713	3.1265
1131	1	3.9081	4.6897	3.9081
1132	1	3.1265	5.4713	3.9081
1133	1	4.6897	4.6897	3.1265
1134	1	5.4713	5.4713	3.1265
1135	1	5.4713	4.6897	3.9081
1136	1	4.6897	5.4713	3.9081
1137	1	6.2529	4.6897	3.1265
1138	1	7.0345	5.4713	3.1265
1139	1	7.0345	4.6897	3.9081
1140	1	6.2529	5.4713	3.9081
1141	1	7.8161	4.6897	3.1265
1142	1	8.5977	5.4713	3.1265
1143	1	8.5977	4.6897	3.9081
1144	1	7.8161	5.4713	3.9081
1145	1	9.3794	4.6897	3.1265
1146	1	10.161	5.4713	3.1265
1147	1	10.161	4.6897	3.9081
1148	1	9.3794	5.4713	3.9081
1149	2	10.943	4.6897	3.1265
1150	2	11.724	5.4713	3.1265
1151	2	11.724	4.6897	3.9081
1152	2	10.943	5.4713	3.9081
1153	2	12.506	4.6897	3.1265